/*--------------------------------*- C++ -*----------------------------------*\
| =========                 |                                                 |
| \\      /  F ield         | OpenFOAM: The Open Source CFD Toolbox           |
|  \\    /   O peration     | Version:  2406                                  |
|   \\  /    A nd           | Website:  www.openfoam.com                      |
|    \\/     M anipulation  |                                                 |
\*---------------------------------------------------------------------------*/
FoamFile
{
    version     2.0;
    format      ascii;
    arch        "LSB;label=32;scalar=64";
    class       surfaceScalarField;
    location    "1.3";
    object      alphaPhi0.air;
}
// * * * * * * * * * * * * * * * * * * * * * * * * * * * * * * * * * * * * * //

dimensions      [0 3 -1 0 0 0 0];

oriented        oriented;

internalField   nonuniform List<scalar> 
12225
(
0.510444
1.87676e-06
0.510438
6.15161e-06
0.510431
7.10566e-06
0.510425
5.231e-06
0.51042
4.9826e-06
0.510415
5.87249e-06
0.510409
5.71787e-06
0.510403
5.56739e-06
0.510398
5.53874e-06
0.510392
5.61385e-06
0.510386
5.80077e-06
0.510381
5.44897e-06
0.510376
5.12283e-06
0.510371
5.16519e-06
0.510365
5.64638e-06
0.510359
5.88581e-06
0.510353
5.58523e-06
0.510348
5.23317e-06
0.510343
5.08303e-06
0.510338
5.4406e-06
0.510332
5.88432e-06
0.510326
5.75075e-06
0.51032
5.66998e-06
0.510315
5.73257e-06
0.510309
5.46206e-06
0.510304
5.19516e-06
0.510299
5.19132e-06
0.510294
5.2492e-06
0.510289
5.00716e-06
0.510284
4.69444e-06
0.510279
4.87328e-06
0.510274
5.31896e-06
0.510268
5.4194e-06
0.510263
5.24766e-06
0.510258
5.33527e-06
0.510252
5.34466e-06
0.510247
5.14531e-06
0.510242
5.26079e-06
0.510237
5.39894e-06
0.510231
5.37073e-06
0.510226
5.59214e-06
0.51022
5.9257e-06
0.510214
5.93808e-06
0.510208
5.71596e-06
0.510202
5.49949e-06
0.510197
5.37403e-06
0.510192
5.4713e-06
0.510186
5.68665e-06
0.51018
5.7182e-06
0.510175
5.62216e-06
0.510169
5.64452e-06
0.510163
5.76683e-06
0.510157
5.77447e-06
0.510152
5.6383e-06
0.510146
5.50869e-06
0.510141
5.405e-06
0.510135
5.43899e-06
0.51013
5.82979e-06
0.510123
6.16878e-06
0.510117
5.96782e-06
0.510112
5.49442e-06
0.510107
5.1464e-06
0.510102
5.06172e-06
0.510097
5.18033e-06
0.510091
5.28843e-06
0.510086
5.3397e-06
0.510081
5.37307e-06
0.510075
5.27846e-06
0.51007
5.04634e-06
0.510065
5.02469e-06
0.51006
5.24688e-06
0.510055
5.24643e-06
0.51005
5.05449e-06
0.510045
5.01842e-06
0.51004
5.13532e-06
0.510034
5.29598e-06
0.510029
5.38769e-06
0.510023
5.48379e-06
0.510018
5.65168e-06
0.510012
5.61528e-06
0.510007
5.41025e-06
0.510001
5.42008e-06
0.509996
5.64754e-06
0.50999
5.82359e-06
0.509984
5.73167e-06
0.509979
5.38984e-06
0.509974
5.00108e-06
0.509969
4.71647e-06
0.509964
4.73672e-06
0.509959
5.15307e-06
0.509953
5.66347e-06
0.509947
5.93056e-06
0.509942
5.89516e-06
0.509936
5.6312e-06
0.509931
5.26617e-06
0.509926
4.99899e-06
0.509921
5.02313e-06
0.509915
5.22216e-06
0.50991
5.35813e-06
0.509905
5.46367e-06
0.509899
5.5448e-06
0.509894
5.50176e-06
0.509888
5.40787e-06
0.509883
5.33557e-06
0.509878
5.32019e-06
0.509872
5.3224e-06
0.509867
5.24889e-06
0.509862
5.30038e-06
0.509856
5.63995e-06
0.50985
5.97975e-06
0.509844
6.00252e-06
0.509838
5.59513e-06
0.509833
4.97877e-06
0.509829
4.73396e-06
0.509824
5.02453e-06
0.509818
5.45421e-06
0.509812
5.80944e-06
0.509806
5.97015e-06
0.509801
5.78816e-06
0.509795
5.50816e-06
0.50979
5.3628e-06
0.509785
5.22438e-06
0.509779
5.06305e-06
0.509774
5.01132e-06
0.509769
5.09734e-06
0.509764
5.26849e-06
0.509759
5.45151e-06
0.509753
5.54435e-06
0.509748
5.51379e-06
0.509742
5.38151e-06
0.509737
5.21427e-06
0.509732
5.1579e-06
0.509727
5.32706e-06
0.509721
5.52115e-06
0.509716
5.45135e-06
0.50971
5.19442e-06
0.509705
4.95118e-06
0.509701
4.83308e-06
0.509696
4.99132e-06
0.50969
5.44894e-06
0.509684
5.96204e-06
0.509678
6.24713e-06
0.509672
6.16915e-06
0.509666
5.77699e-06
0.509661
5.27057e-06
0.509656
4.87459e-06
0.509651
4.74212e-06
0.509646
4.95659e-06
0.509641
5.36333e-06
0.509635
5.61067e-06
0.50963
5.62807e-06
0.509624
5.65836e-06
0.509618
5.75843e-06
0.509612
5.74714e-06
0.509607
5.58454e-06
0.509601
5.36631e-06
0.509596
5.1025e-06
0.509591
4.86204e-06
0.509587
4.79515e-06
0.509582
4.92655e-06
0.509577
5.1977e-06
0.509571
5.49546e-06
0.509565
5.72277e-06
0.509559
5.91917e-06
0.509553
6.02263e-06
0.509547
5.89199e-06
0.509542
5.60663e-06
0.509537
5.33814e-06
0.509531
5.20225e-06
0.509526
5.29575e-06
0.50952
5.56041e-06
0.509515
5.77888e-06
0.509509
5.82978e-06
0.509503
5.74751e-06
0.509498
5.61738e-06
0.509492
5.55741e-06
0.509486
5.61752e-06
0.509481
5.67453e-06
0.509475
5.62002e-06
0.50947
5.5183e-06
0.509464
5.43503e-06
0.509459
5.35979e-06
0.509453
5.36257e-06
0.509448
5.46888e-06
0.509442
5.51836e-06
0.509437
5.45709e-06
0.509432
5.39267e-06
0.509426
5.32334e-06
0.509421
5.27187e-06
0.509416
5.39653e-06
0.50941
5.70798e-06
0.509404
5.99592e-06
0.509398
6.06976e-06
0.509392
5.94257e-06
0.509386
5.75806e-06
0.50938
5.59205e-06
0.509375
5.45888e-06
0.50937
5.41066e-06
0.509364
5.42138e-06
0.509359
5.37988e-06
0.509354
5.29644e-06
0.509348
5.26008e-06
0.509343
5.27515e-06
0.509338
5.31394e-06
0.509332
5.37103e-06
0.509327
5.43311e-06
0.509321
5.47623e-06
0.509316
5.47215e-06
0.50931
5.42403e-06
0.509305
5.38453e-06
0.5093
5.37541e-06
0.509294
5.34251e-06
0.509289
5.23095e-06
0.509284
5.10211e-06
0.509279
5.08789e-06
0.509274
5.17713e-06
0.509269
5.2041e-06
0.509263
5.0984e-06
0.509258
5.0405e-06
0.509253
5.21931e-06
0.509248
5.49623e-06
0.509242
5.58936e-06
0.509237
5.44911e-06
0.509231
5.22478e-06
0.509226
5.06364e-06
0.509221
4.99868e-06
0.509216
4.9734e-06
0.509211
4.96702e-06
0.509206
4.9967e-06
0.509201
5.07423e-06
0.509196
5.19053e-06
0.509191
5.25613e-06
0.509186
5.22026e-06
0.509181
5.1921e-06
0.509175
5.22178e-06
0.50917
5.19597e-06
0.509165
5.094e-06
0.50916
5.03163e-06
0.509155
5.04003e-06
0.50915
5.08438e-06
0.509145
5.14319e-06
0.50914
5.19503e-06
0.509134
5.27888e-06
0.509129
5.39201e-06
0.509123
5.43531e-06
0.509118
5.43926e-06
0.509112
5.56845e-06
0.509107
5.68533e-06
0.509101
6.11981e-06
5.53982e-06
0.51045
-5.00678e-08
0.510455
5.07174e-07
0.510461
1.42914e-06
0.510464
2.24839e-06
0.510467
2.00509e-06
0.510471
1.90234e-06
0.510474
2.51191e-06
0.510477
2.51089e-06
0.510481
2.06584e-06
0.510484
2.00384e-06
0.510488
2.11841e-06
0.510491
2.35404e-06
0.510494
2.60018e-06
0.510496
2.6713e-06
0.510499
2.73215e-06
0.510502
3.16549e-06
0.510504
3.36369e-06
0.510506
3.1646e-06
0.510508
2.89786e-06
0.510511
2.41427e-06
0.510515
2.04285e-06
0.510519
1.90942e-06
0.510523
1.7782e-06
0.510527
1.80684e-06
0.51053
1.91514e-06
0.510534
1.89726e-06
0.510537
2.12743e-06
0.510539
2.54471e-06
0.510542
2.87261e-06
0.510543
3.23563e-06
0.510545
3.26518e-06
0.510547
2.9443e-06
0.51055
2.82365e-06
0.510552
2.61472e-06
0.510555
2.41371e-06
0.510558
2.82231e-06
0.51056
3.17231e-06
0.510562
2.86871e-06
0.510565
2.65191e-06
0.510567
2.88117e-06
0.51057
2.87893e-06
0.510574
2.4051e-06
0.510578
1.90172e-06
0.510581
1.89583e-06
0.510584
2.45506e-06
0.510587
2.79634e-06
0.51059
2.30581e-06
0.510594
1.54162e-06
0.510599
1.46451e-06
0.510602
2.17433e-06
0.510605
2.76178e-06
0.510608
2.78177e-06
0.510611
2.62441e-06
0.510614
2.59393e-06
0.510617
2.7102e-06
0.510619
2.85412e-06
0.510622
2.67165e-06
0.510626
2.34383e-06
0.51063
2.3133e-06
0.510633
2.26416e-06
0.510637
1.91013e-06
0.51064
1.65933e-06
0.510644
1.85518e-06
0.510646
2.37227e-06
0.510649
2.7718e-06
0.510651
2.77717e-06
0.510654
2.60632e-06
0.510657
2.55988e-06
0.51066
2.48276e-06
0.510662
2.32905e-06
0.510665
2.54832e-06
0.510667
3.00908e-06
0.510669
3.12866e-06
0.510671
2.89717e-06
0.510674
2.53752e-06
0.510677
2.19649e-06
0.51068
2.05097e-06
0.510684
2.16295e-06
0.510687
2.5756e-06
0.510689
3.01507e-06
0.510692
2.94435e-06
0.510695
2.45798e-06
0.510698
2.11611e-06
0.510702
2.13748e-06
0.510705
2.32846e-06
0.510708
2.44926e-06
0.510711
2.45206e-06
0.510713
2.36746e-06
0.510716
2.19487e-06
0.510719
2.06548e-06
0.510722
2.14249e-06
0.510726
2.38705e-06
0.510729
2.6624e-06
0.510732
2.88238e-06
0.510734
2.94443e-06
0.510736
2.70122e-06
0.510739
2.32995e-06
0.510742
2.1842e-06
0.510745
2.16451e-06
0.510749
2.10763e-06
0.510752
2.18782e-06
0.510755
2.39511e-06
0.510758
2.57322e-06
0.510761
2.66871e-06
0.510763
2.68707e-06
0.510766
2.75077e-06
0.510768
2.81119e-06
0.510771
2.67836e-06
0.510774
2.49252e-06
0.510778
2.4816e-06
0.510781
2.64816e-06
0.510784
2.83782e-06
0.510786
2.74497e-06
0.510788
2.34404e-06
0.510791
2.07203e-06
0.510795
2.14672e-06
0.510798
2.48884e-06
0.510801
2.95478e-06
0.510804
3.12074e-06
0.510806
2.76122e-06
0.510809
2.31764e-06
0.510812
2.20982e-06
0.510815
2.41478e-06
0.510817
2.7146e-06
0.51082
2.88271e-06
0.510822
2.84671e-06
0.510825
2.7113e-06
0.510828
2.63144e-06
0.51083
2.65085e-06
0.510833
2.74228e-06
0.510836
2.78354e-06
0.510838
2.60618e-06
0.510841
2.35578e-06
0.510844
2.30376e-06
0.510847
2.36995e-06
0.51085
2.42049e-06
0.510853
2.50028e-06
0.510855
2.55757e-06
0.510857
2.506e-06
0.51086
2.43847e-06
0.510864
2.48899e-06
0.510867
2.67034e-06
0.510871
2.89618e-06
0.510873
2.9994e-06
0.510876
2.8712e-06
0.510878
2.57205e-06
0.510881
2.18805e-06
0.510884
1.87845e-06
0.510887
1.87587e-06
0.510891
2.10972e-06
0.510894
2.24955e-06
0.510898
2.2228e-06
0.510901
2.2282e-06
0.510905
2.31721e-06
0.510908
2.38983e-06
0.510911
2.49017e-06
0.510913
2.64423e-06
0.510915
2.70324e-06
0.510917
2.61745e-06
0.51092
2.48289e-06
0.510923
2.40562e-06
0.510926
2.40789e-06
0.510929
2.33562e-06
0.510933
2.19109e-06
0.510937
2.20493e-06
0.51094
2.40575e-06
0.510943
2.65298e-06
0.510946
2.84431e-06
0.510948
2.82664e-06
0.510951
2.5568e-06
0.510954
2.27367e-06
0.510958
2.1954e-06
0.510961
2.32702e-06
0.510964
2.5706e-06
0.510967
2.73522e-06
0.51097
2.68421e-06
0.510973
2.54992e-06
0.510976
2.49646e-06
0.510979
2.46796e-06
0.510983
2.41565e-06
0.510986
2.42856e-06
0.510988
2.47927e-06
0.510991
2.48594e-06
0.510994
2.56085e-06
0.510997
2.71612e-06
0.511
2.78219e-06
0.511002
2.78816e-06
0.511005
2.80175e-06
0.511007
2.71618e-06
0.51101
2.53347e-06
0.511014
2.39539e-06
0.511017
2.40694e-06
0.511021
2.55145e-06
0.511024
2.68023e-06
0.511027
2.72806e-06
0.51103
2.7483e-06
0.511033
2.70329e-06
0.511035
2.58e-06
0.511038
2.4966e-06
0.511041
2.45796e-06
0.511044
2.37531e-06
0.511047
2.30248e-06
0.51105
2.33236e-06
0.511053
2.44991e-06
0.511056
2.59204e-06
0.511058
2.68947e-06
0.511061
2.71848e-06
0.511064
2.70262e-06
0.511067
2.64316e-06
0.51107
2.54661e-06
0.511072
2.47774e-06
0.511075
2.48821e-06
0.511078
2.51111e-06
0.511081
2.45208e-06
0.511083
2.38864e-06
0.511086
2.48318e-06
0.511089
2.71619e-06
0.511091
2.83667e-06
0.511093
2.65453e-06
0.511096
2.33847e-06
0.511099
2.18294e-06
0.511103
2.24168e-06
0.511106
2.38746e-06
0.511109
2.49705e-06
0.511111
2.52689e-06
0.511114
2.52173e-06
0.511116
2.51936e-06
0.511118
2.52368e-06
0.511121
2.51785e-06
0.511124
2.48233e-06
0.511126
2.47922e-06
0.511129
2.56007e-06
0.511132
2.63344e-06
0.511134
2.6454e-06
0.511137
2.67153e-06
0.511139
2.69906e-06
0.511142
2.59897e-06
0.511144
2.38619e-06
0.511147
2.22354e-06
0.51115
2.20234e-06
0.511153
2.28744e-06
0.511156
2.38874e-06
0.511158
2.45424e-06
0.511161
2.52779e-06
0.511164
2.61477e-06
0.511167
2.62131e-06
0.51117
2.5699e-06
0.511173
2.56833e-06
0.511177
2.57626e-06
2.79667e-06
0.510448
1.63782e-07
0.510447
1.52337e-06
0.510447
1.83267e-06
0.510448
1.45387e-06
0.510448
1.57548e-06
0.510448
1.70128e-06
0.510449
2.01357e-06
0.510449
2.45914e-06
0.510448
2.66369e-06
0.510448
2.3801e-06
0.510448
2.25392e-06
0.510448
2.13407e-06
0.510449
2.01459e-06
0.51045
1.69793e-06
0.510451
1.28208e-06
0.510453
1.67369e-06
0.510453
2.45637e-06
0.510454
2.5097e-06
0.510455
2.32517e-06
0.510455
2.42117e-06
0.510454
2.37842e-06
0.510454
2.08098e-06
0.510454
2.14458e-06
0.510453
2.75639e-06
0.510451
3.33798e-06
0.51045
3.11614e-06
0.51045
2.15383e-06
0.510451
1.76237e-06
0.510452
2.23262e-06
0.510452
2.33635e-06
0.510454
1.83114e-06
0.510455
1.55279e-06
0.510456
1.90164e-06
0.510456
2.5406e-06
0.510456
2.63485e-06
0.510457
1.78313e-06
0.510459
1.20818e-06
0.51046
1.84665e-06
0.51046
2.54377e-06
0.510461
2.47755e-06
0.510461
2.16343e-06
0.510462
2.17001e-06
0.510461
2.54193e-06
0.51046
2.77459e-06
0.51046
2.60866e-06
0.51046
2.23981e-06
0.510461
2.11667e-06
0.51046
2.37939e-06
0.510459
2.4002e-06
0.510459
2.03007e-06
0.51046
1.88755e-06
0.510461
2.01815e-06
0.510461
2.03766e-06
0.510462
1.98216e-06
0.510462
2.1401e-06
0.510463
2.60512e-06
0.510462
2.96278e-06
0.510462
2.77698e-06
0.510462
2.34229e-06
0.510462
2.16765e-06
0.510462
2.31168e-06
0.510461
2.51812e-06
0.51046
2.58735e-06
0.51046
2.55085e-06
0.51046
2.36588e-06
0.510461
1.9536e-06
0.510462
1.6388e-06
0.510463
1.80853e-06
0.510463
2.18446e-06
0.510463
2.23878e-06
0.510464
2.12529e-06
0.510464
2.19473e-06
0.510465
2.29166e-06
0.510466
2.27302e-06
0.510466
2.28726e-06
0.510466
2.39329e-06
0.510466
2.41759e-06
0.510466
2.20122e-06
0.510466
1.98498e-06
0.510467
2.09748e-06
0.510468
2.37389e-06
0.510468
2.43359e-06
0.510467
2.28973e-06
0.510467
2.20452e-06
0.510468
2.15861e-06
0.510468
2.07217e-06
0.510468
2.12095e-06
0.510468
2.32249e-06
0.510468
2.42938e-06
0.510468
2.33844e-06
0.510468
2.09247e-06
0.510468
1.8089e-06
0.510469
1.71438e-06
0.51047
1.96672e-06
0.510471
2.48562e-06
0.510471
2.76516e-06
0.510471
2.44323e-06
0.510471
1.98252e-06
0.510471
1.88794e-06
0.510471
2.04477e-06
0.510471
2.26422e-06
0.510471
2.4553e-06
0.510471
2.49163e-06
0.510471
2.3964e-06
0.510472
2.29627e-06
0.510472
2.29191e-06
0.510473
2.39889e-06
0.510473
2.52037e-06
0.510473
2.53126e-06
0.510473
2.38697e-06
0.510473
2.14526e-06
0.510474
1.97452e-06
0.510475
1.94516e-06
0.510475
1.95236e-06
0.510475
1.9674e-06
0.510476
1.92434e-06
0.510476
1.79004e-06
0.510477
1.85062e-06
0.510478
2.1857e-06
0.510479
2.38017e-06
0.510479
2.20596e-06
0.510479
1.87553e-06
0.51048
1.6728e-06
0.510481
1.74868e-06
0.510482
2.07946e-06
0.510482
2.46498e-06
0.510482
2.68027e-06
0.510482
2.69686e-06
0.510482
2.59577e-06
0.510482
2.47592e-06
0.510483
2.44665e-06
0.510483
2.39925e-06
0.510483
2.21924e-06
0.510483
2.09988e-06
0.510484
2.13836e-06
0.510484
2.16784e-06
0.510484
2.20725e-06
0.510484
2.39779e-06
0.510484
2.65448e-06
0.510484
2.81453e-06
0.510483
2.83951e-06
0.510483
2.72725e-06
0.510484
2.5562e-06
0.510484
2.45381e-06
0.510485
2.41742e-06
0.510485
2.40209e-06
0.510485
2.33268e-06
0.510484
2.12283e-06
0.510484
1.95613e-06
0.510484
2.06398e-06
0.510484
2.29163e-06
0.510484
2.38444e-06
0.510484
2.39389e-06
0.510484
2.43074e-06
0.510484
2.40082e-06
0.510484
2.2926e-06
0.510484
2.26846e-06
0.510485
2.35541e-06
0.510485
2.45197e-06
0.510485
2.48214e-06
0.510485
2.43447e-06
0.510485
2.38242e-06
0.510485
2.31028e-06
0.510485
2.14134e-06
0.510485
1.98581e-06
0.510486
1.97919e-06
0.510486
2.08792e-06
0.510487
2.29347e-06
0.510487
2.58166e-06
0.510487
2.79403e-06
0.510486
2.81229e-06
0.510486
2.67651e-06
0.510486
2.43863e-06
0.510486
2.19516e-06
0.510487
2.04983e-06
0.510487
1.94409e-06
0.510488
1.84541e-06
0.510489
1.87002e-06
0.510489
2.02549e-06
0.51049
2.17059e-06
0.51049
2.2771e-06
0.51049
2.3506e-06
0.51049
2.2788e-06
0.51049
2.14936e-06
0.510491
2.18134e-06
0.510491
2.26601e-06
0.510492
2.24964e-06
0.510493
2.22426e-06
0.510493
2.20845e-06
0.510493
2.13835e-06
0.510494
2.0555e-06
0.510494
2.02576e-06
0.510495
2.06275e-06
0.510495
2.10967e-06
0.510496
2.1162e-06
0.510496
2.13909e-06
0.510497
2.1838e-06
0.510497
2.17425e-06
0.510498
2.17542e-06
0.510498
2.26915e-06
0.510498
2.34413e-06
0.510498
2.30521e-06
0.510498
2.21415e-06
0.510498
2.15552e-06
0.510499
2.18233e-06
0.510499
2.27898e-06
0.5105
2.36716e-06
0.5105
2.40713e-06
0.5105
2.39812e-06
0.5105
2.3395e-06
0.5105
2.27294e-06
0.510501
2.28583e-06
0.510501
2.38176e-06
0.510501
2.41231e-06
0.510501
2.26659e-06
0.510501
2.04512e-06
0.510502
1.96451e-06
0.510503
2.0805e-06
0.510503
2.18915e-06
0.510504
2.14533e-06
0.510504
2.03958e-06
0.510504
1.97722e-06
0.510504
1.98522e-06
0.510505
2.06661e-06
0.510505
2.17506e-06
0.510505
2.25978e-06
0.510506
2.30548e-06
0.510506
2.32382e-06
0.510506
2.34392e-06
0.510506
2.35169e-06
0.510506
2.3323e-06
0.510507
2.33476e-06
0.510507
2.34398e-06
0.510507
2.27655e-06
0.510508
2.19414e-06
0.510508
2.25613e-06
0.510508
2.423e-06
0.510508
2.53813e-06
0.510508
2.55503e-06
0.510507
2.5089e-06
0.510507
2.45336e-06
0.510507
2.42139e-06
0.510507
2.41313e-06
0.510507
2.46613e-06
0.510507
2.58123e-06
0.510507
2.63484e-06
0.510507
2.55785e-06
0.510508
2.46527e-06
0.510508
2.49275e-06
2.55725e-06
0.510448
1.36485e-07
0.510449
7.44411e-07
0.510449
1.5975e-06
0.510448
1.87986e-06
0.510448
1.59098e-06
0.510449
1.29905e-06
0.51045
1.24037e-06
0.510451
1.19089e-06
0.510452
1.14295e-06
0.510453
1.24105e-06
0.510454
1.6499e-06
0.510454
2.0997e-06
0.510454
1.78246e-06
0.510454
1.93023e-06
0.510453
2.43018e-06
0.510453
2.022e-06
0.510453
1.74674e-06
0.510454
1.88515e-06
0.510454
1.86358e-06
0.510455
1.82379e-06
0.510455
2.27098e-06
0.510454
2.90099e-06
0.510454
2.83607e-06
0.510454
2.12649e-06
0.510456
1.64512e-06
0.510457
1.85899e-06
0.510457
2.23752e-06
0.510457
2.10789e-06
0.510457
1.54026e-06
0.510459
1.18644e-06
0.510459
1.44094e-06
0.510459
1.90066e-06
0.510458
2.17413e-06
0.510459
2.15209e-06
0.510459
2.21565e-06
0.510458
2.6453e-06
0.510457
2.77575e-06
0.510456
2.47208e-06
0.510457
2.12284e-06
0.510457
1.80826e-06
0.510458
1.68556e-06
0.510458
1.93513e-06
0.510458
2.31465e-06
0.510459
2.31002e-06
0.510459
2.12882e-06
0.510459
2.07459e-06
0.51046
1.78798e-06
0.51046
1.63376e-06
0.510461
2.15743e-06
0.51046
2.74222e-06
0.510459
2.73147e-06
0.510459
2.27992e-06
0.510459
1.57871e-06
0.51046
1.08735e-06
0.510461
1.28381e-06
0.510462
1.86482e-06
0.510462
2.2065e-06
0.510463
2.12405e-06
0.510464
1.84119e-06
0.510464
1.65296e-06
0.510465
1.80231e-06
0.510465
2.20763e-06
0.510465
2.37563e-06
0.510466
2.20457e-06
0.510466
2.04939e-06
0.510466
1.84536e-06
0.510466
1.37779e-06
0.510467
1.14019e-06
0.510468
1.55196e-06
0.510468
2.11099e-06
0.510467
2.32086e-06
0.510467
2.24058e-06
0.510468
1.9924e-06
0.510468
1.69803e-06
0.510469
1.57829e-06
0.51047
1.8043e-06
0.51047
2.2495e-06
0.51047
2.43934e-06
0.510469
2.1745e-06
0.51047
1.80626e-06
0.51047
1.71714e-06
0.510471
1.91178e-06
0.510471
2.11771e-06
0.510471
2.2742e-06
0.510471
2.36907e-06
0.51047
2.25981e-06
0.510471
2.07921e-06
0.510471
2.05724e-06
0.510471
2.12998e-06
0.510471
2.24986e-06
0.510471
2.38869e-06
0.51047
2.41161e-06
0.51047
2.23871e-06
0.51047
1.93008e-06
0.510471
1.76742e-06
0.510471
1.93707e-06
0.510472
2.07264e-06
0.510472
1.90151e-06
0.510472
1.63231e-06
0.510473
1.50018e-06
0.510473
1.6227e-06
0.510474
1.99098e-06
0.510474
2.38713e-06
0.510474
2.49971e-06
0.510474
2.28908e-06
0.510474
2.03069e-06
0.510474
1.97936e-06
0.510475
2.10899e-06
0.510475
2.29754e-06
0.510475
2.40501e-06
0.510475
2.32659e-06
0.510475
2.13485e-06
0.510475
1.92395e-06
0.510475
1.73939e-06
0.510475
1.76625e-06
0.510475
2.01201e-06
0.510475
2.15376e-06
0.510474
2.09773e-06
0.510475
2.04046e-06
0.510475
2.03952e-06
0.510475
2.04774e-06
0.510475
2.02614e-06
0.510475
1.99505e-06
0.510474
1.98529e-06
0.510474
1.99673e-06
0.510475
2.05105e-06
0.510475
2.14292e-06
0.510476
2.22107e-06
0.510476
2.22919e-06
0.510477
2.1378e-06
0.510477
2.05222e-06
0.510477
2.01762e-06
0.510478
1.89357e-06
0.510478
1.72814e-06
0.510478
1.70271e-06
0.510479
1.79121e-06
0.510479
1.89116e-06
0.51048
2.02882e-06
0.51048
2.21113e-06
0.51048
2.36757e-06
0.510481
2.47466e-06
0.510481
2.50417e-06
0.510481
2.41047e-06
0.510481
2.23508e-06
0.510482
2.02989e-06
0.510482
1.86625e-06
0.510483
1.82144e-06
0.510483
1.78071e-06
0.510483
1.66559e-06
0.510484
1.67184e-06
0.510484
1.88484e-06
0.510485
2.09315e-06
0.510485
2.18564e-06
0.510485
2.25251e-06
0.510485
2.27323e-06
0.510485
2.17059e-06
0.510485
2.01749e-06
0.510486
1.9274e-06
0.510486
1.9226e-06
0.510487
1.9154e-06
0.510488
1.84655e-06
0.510488
1.8228e-06
0.510489
1.89014e-06
0.510489
1.92097e-06
0.510489
1.86958e-06
0.510489
1.80946e-06
0.510489
1.77233e-06
0.51049
1.77763e-06
0.510491
1.87081e-06
0.510491
2.01184e-06
0.510492
2.11088e-06
0.510493
2.14563e-06
0.510493
2.10971e-06
0.510493
2.00471e-06
0.510493
1.91502e-06
0.510493
1.85546e-06
0.510493
1.75692e-06
0.510494
1.68681e-06
0.510494
1.7489e-06
0.510494
1.87969e-06
0.510494
2.04147e-06
0.510494
2.29939e-06
0.510494
2.50011e-06
0.510494
2.45997e-06
0.510494
2.33138e-06
0.510494
2.25497e-06
0.510494
2.18998e-06
0.510494
2.18577e-06
0.510494
2.25427e-06
0.510494
2.26596e-06
0.510494
2.17025e-06
0.510494
2.04196e-06
0.510494
1.97784e-06
0.510494
1.9941e-06
0.510494
2.0102e-06
0.510494
2.00984e-06
0.510494
2.02843e-06
0.510494
1.97978e-06
0.510495
1.8277e-06
0.510495
1.73673e-06
0.510496
1.79149e-06
0.510496
1.89183e-06
0.510496
1.95092e-06
0.510497
1.93998e-06
0.510497
1.87649e-06
0.510497
1.83194e-06
0.510498
1.8481e-06
0.510498
1.91821e-06
0.510499
2.03363e-06
0.510499
2.14187e-06
0.510499
2.15309e-06
0.510499
2.09232e-06
0.5105
2.0988e-06
0.5105
2.19574e-06
0.5105
2.25214e-06
0.5105
2.15907e-06
0.5105
1.97602e-06
0.5105
1.89248e-06
0.5105
1.95479e-06
0.5105
2.02324e-06
0.5105
2.04405e-06
0.5105
2.06058e-06
0.5105
2.07459e-06
0.5105
2.07507e-06
0.5105
2.07396e-06
0.5105
2.09455e-06
0.5105
2.14611e-06
0.510501
2.19915e-06
0.510501
2.2306e-06
0.510501
2.22543e-06
0.510501
2.17945e-06
0.510501
2.15527e-06
0.510501
2.1851e-06
0.510501
2.16129e-06
0.510502
2.01916e-06
0.510502
1.88466e-06
0.510503
1.87055e-06
0.510503
1.92587e-06
0.510504
1.97453e-06
0.510504
2.02781e-06
0.510505
2.10436e-06
0.510505
2.13456e-06
0.510505
2.05291e-06
0.510506
1.93729e-06
0.510506
1.93034e-06
0.510507
2.05505e-06
0.510507
2.21772e-06
0.510507
2.30434e-06
0.510508
2.27186e-06
2.23924e-06
0.510449
-2.91529e-07
0.51045
-1.67248e-07
0.510451
4.11665e-07
0.510452
8.24587e-07
0.510453
9.24751e-07
0.510453
1.32779e-06
0.510452
1.57967e-06
0.510452
1.418e-06
0.510452
1.41477e-06
0.510451
1.83948e-06
0.510451
1.92863e-06
0.510451
1.88104e-06
0.510451
2.24651e-06
0.51045
2.17883e-06
0.510451
1.75462e-06
0.510451
1.85986e-06
0.510451
1.92641e-06
0.510451
1.70351e-06
0.510451
1.78043e-06
0.510451
1.8181e-06
0.510452
1.71221e-06
0.510453
1.61119e-06
0.510455
1.39796e-06
0.510456
1.28444e-06
0.510456
1.5596e-06
0.510455
2.21029e-06
0.510455
2.38453e-06
0.510455
2.08954e-06
0.510455
2.14339e-06
0.510453
2.37666e-06
0.510452
2.54456e-06
0.510452
2.42154e-06
0.510452
1.85124e-06
0.510453
1.50376e-06
0.510453
1.51148e-06
0.510454
1.65568e-06
0.510455
2.06881e-06
0.510455
2.30316e-06
0.510456
1.85495e-06
0.510456
1.32399e-06
0.510456
1.36664e-06
0.510457
1.66558e-06
0.510457
1.90796e-06
0.510457
1.85105e-06
0.510458
1.3062e-06
0.510459
9.57549e-07
0.51046
1.3281e-06
0.51046
1.8803e-06
0.51046
2.1983e-06
0.51046
2.18372e-06
0.510461
1.72184e-06
0.510462
1.28831e-06
0.510462
1.39469e-06
0.510462
1.72791e-06
0.510461
1.86046e-06
0.510461
1.85276e-06
0.510462
1.76608e-06
0.510462
1.43955e-06
0.510463
1.15983e-06
0.510463
1.22764e-06
0.510464
1.42678e-06
0.510464
1.64959e-06
0.510465
1.8541e-06
0.510465
1.84828e-06
0.510465
1.78949e-06
0.510465
1.90534e-06
0.510465
1.88303e-06
0.510464
1.63983e-06
0.510464
1.68716e-06
0.510464
2.0492e-06
0.510464
2.2377e-06
0.510464
2.1824e-06
0.510464
2.10204e-06
0.510464
2.04003e-06
0.510464
1.92461e-06
0.510464
1.76664e-06
0.510464
1.69943e-06
0.510465
1.72569e-06
0.510465
1.71763e-06
0.510466
1.64311e-06
0.510466
1.63746e-06
0.510466
1.7512e-06
0.510466
1.71803e-06
0.510467
1.51748e-06
0.510468
1.46961e-06
0.510469
1.51205e-06
0.510469
1.45239e-06
0.51047
1.43179e-06
0.510471
1.48335e-06
0.510471
1.52457e-06
0.510472
1.63351e-06
0.510472
1.91005e-06
0.510473
2.22141e-06
0.510472
2.29656e-06
0.510472
2.0761e-06
0.510472
1.7615e-06
0.510473
1.47276e-06
0.510473
1.25364e-06
0.510474
1.26216e-06
0.510474
1.48497e-06
0.510474
1.67913e-06
0.510474
1.69295e-06
0.510475
1.66568e-06
0.510475
1.7114e-06
0.510476
1.73288e-06
0.510476
1.71398e-06
0.510476
1.73708e-06
0.510477
1.84322e-06
0.510477
2.01525e-06
0.510477
2.10638e-06
0.510478
1.90489e-06
0.510478
1.55509e-06
0.510479
1.38577e-06
0.510479
1.42747e-06
0.510479
1.6675e-06
0.510479
2.05535e-06
0.510479
2.25688e-06
0.510479
2.10926e-06
0.510479
1.83571e-06
0.51048
1.67611e-06
0.51048
1.69721e-06
0.51048
1.79297e-06
0.51048
1.86454e-06
0.51048
1.9397e-06
0.51048
2.01171e-06
0.51048
2.08279e-06
0.51048
2.13418e-06
0.510481
2.11924e-06
0.510481
2.03287e-06
0.510481
1.8557e-06
0.510481
1.6667e-06
0.510482
1.63202e-06
0.510482
1.67944e-06
0.510482
1.67167e-06
0.510482
1.66585e-06
0.510482
1.71914e-06
0.510482
1.77511e-06
0.510482
1.84001e-06
0.510483
1.9967e-06
0.510483
2.19645e-06
0.510483
2.31571e-06
0.510483
2.31136e-06
0.510483
2.17978e-06
0.510484
1.96055e-06
0.510484
1.70711e-06
0.510484
1.48658e-06
0.510485
1.4364e-06
0.510485
1.54876e-06
0.510485
1.62108e-06
0.510485
1.62205e-06
0.510485
1.71072e-06
0.510486
1.84983e-06
0.510486
1.85498e-06
0.510486
1.76911e-06
0.510487
1.72566e-06
0.510487
1.69541e-06
0.510488
1.64709e-06
0.510488
1.6386e-06
0.510488
1.70984e-06
0.510488
1.78871e-06
0.510488
1.73243e-06
0.510489
1.56101e-06
0.510489
1.45635e-06
0.51049
1.50365e-06
0.51049
1.64901e-06
0.51049
1.81261e-06
0.51049
1.90791e-06
0.51049
1.89231e-06
0.51049
1.85019e-06
0.51049
1.88385e-06
0.51049
1.96848e-06
0.51049
2.02452e-06
0.51049
1.97226e-06
0.51049
1.78913e-06
0.510491
1.6112e-06
0.510491
1.57379e-06
0.510491
1.62683e-06
0.510491
1.68285e-06
0.510491
1.76828e-06
0.510491
1.84622e-06
0.510491
1.81527e-06
0.510492
1.79902e-06
0.510492
1.91481e-06
0.510493
2.01508e-06
0.510493
2.04213e-06
0.510493
2.06362e-06
0.510494
1.99311e-06
0.510494
1.81737e-06
0.510494
1.71252e-06
0.510495
1.75465e-06
0.510495
1.84552e-06
0.510495
1.88857e-06
0.510495
1.89789e-06
0.510496
1.92903e-06
0.510496
1.94749e-06
0.510496
1.91614e-06
0.510496
1.90768e-06
0.510496
1.93066e-06
0.510496
1.88192e-06
0.510496
1.77517e-06
0.510496
1.72027e-06
0.510496
1.74042e-06
0.510496
1.79969e-06
0.510496
1.86645e-06
0.510496
1.92194e-06
0.510496
1.9599e-06
0.510496
1.96775e-06
0.510496
1.92309e-06
0.510496
1.85226e-06
0.510496
1.82654e-06
0.510497
1.82673e-06
0.510497
1.76113e-06
0.510498
1.66475e-06
0.510498
1.65773e-06
0.510499
1.75385e-06
0.510499
1.82448e-06
0.510499
1.74638e-06
0.510499
1.59682e-06
0.5105
1.53918e-06
0.5105
1.56345e-06
0.510501
1.58874e-06
0.510501
1.59631e-06
0.510502
1.59321e-06
0.510502
1.59983e-06
0.510503
1.63905e-06
0.510503
1.6921e-06
0.510503
1.73154e-06
0.510504
1.755e-06
0.510504
1.7947e-06
0.510505
1.86191e-06
0.510505
1.89628e-06
0.510505
1.87498e-06
0.510506
1.88078e-06
0.510506
1.932e-06
0.510506
1.93719e-06
0.510506
1.88418e-06
0.510506
1.86085e-06
0.510506
1.89511e-06
0.510506
1.90624e-06
0.510506
1.83916e-06
0.510506
1.77196e-06
0.510507
1.79372e-06
0.510507
1.86144e-06
0.510507
1.90179e-06
0.510507
1.88945e-06
0.510507
1.85608e-06
0.510508
1.84433e-06
0.510508
1.87093e-06
0.510508
1.8749e-06
1.86757e-06
0.510448
-1.40723e-07
0.510448
1.72428e-07
0.510447
1.0973e-06
0.510446
1.59195e-06
0.510446
1.24135e-06
0.510447
6.78188e-07
0.510448
6.43789e-07
0.510448
9.33985e-07
0.510449
8.19712e-07
0.510449
1.009e-06
0.51045
1.66838e-06
0.51045
1.40729e-06
0.510451
1.00225e-06
0.510452
1.47414e-06
0.510452
1.85436e-06
0.510452
1.60738e-06
0.510453
1.18963e-06
0.510454
1.05841e-06
0.510454
1.5096e-06
0.510454
2.02837e-06
0.510454
1.9296e-06
0.510453
1.67043e-06
0.510453
1.60658e-06
0.510453
1.85977e-06
0.510452
2.04657e-06
0.510453
1.76526e-06
0.510454
1.24946e-06
0.510455
9.75185e-07
0.510456
1.27806e-06
0.510456
1.79094e-06
0.510457
1.97034e-06
0.510458
1.54948e-06
0.510459
7.9215e-07
0.51046
6.26652e-07
0.51046
1.42549e-06
0.510459
2.12874e-06
0.51046
1.7978e-06
0.510461
1.17247e-06
0.510461
1.15047e-06
0.510461
1.50915e-06
0.510461
1.92034e-06
0.51046
2.0654e-06
0.51046
1.88094e-06
0.51046
1.77468e-06
0.51046
1.66428e-06
0.51046
1.44515e-06
0.510459
1.52549e-06
0.510459
1.88892e-06
0.51046
1.99968e-06
0.51046
1.73775e-06
0.51046
1.37222e-06
0.510461
1.10962e-06
0.510461
1.10551e-06
0.510461
1.4606e-06
0.510461
1.83707e-06
0.510461
1.78831e-06
0.510461
1.60074e-06
0.510461
1.58446e-06
0.510461
1.54446e-06
0.510461
1.54138e-06
0.51046
1.72046e-06
0.51046
1.89843e-06
0.51046
1.89545e-06
0.51046
1.54592e-06
0.510461
9.71833e-07
0.510462
7.4007e-07
0.510463
8.92472e-07
0.510464
9.76796e-07
0.510464
1.08465e-06
0.510465
1.32871e-06
0.510466
1.46283e-06
0.510467
1.44071e-06
0.510467
1.40224e-06
0.510468
1.48071e-06
0.510468
1.60846e-06
0.510469
1.54274e-06
0.510469
1.37444e-06
0.510469
1.30126e-06
0.51047
1.34617e-06
0.51047
1.49038e-06
0.51047
1.66662e-06
0.51047
1.90255e-06
0.510469
2.07161e-06
0.510469
1.89624e-06
0.510469
1.59011e-06
0.510469
1.46185e-06
0.510469
1.43454e-06
0.510469
1.45143e-06
0.510469
1.55358e-06
0.510469
1.6807e-06
0.510468
1.78888e-06
0.510468
1.87126e-06
0.510469
1.90866e-06
0.510469
1.75536e-06
0.51047
1.43293e-06
0.51047
1.26126e-06
0.510471
1.32684e-06
0.51047
1.40043e-06
0.51047
1.38425e-06
0.51047
1.43886e-06
0.51047
1.64953e-06
0.51047
1.84628e-06
0.51047
1.87197e-06
0.51047
1.79713e-06
0.51047
1.69597e-06
0.51047
1.57718e-06
0.51047
1.52079e-06
0.510471
1.48024e-06
0.510471
1.45747e-06
0.510472
1.57311e-06
0.510472
1.648e-06
0.510472
1.4629e-06
0.510472
1.21782e-06
0.510473
1.0459e-06
0.510473
9.96193e-07
0.510474
1.28106e-06
0.510475
1.7288e-06
0.510475
1.91483e-06
0.510475
1.73975e-06
0.510475
1.35343e-06
0.510476
1.03493e-06
0.510477
1.00927e-06
0.510477
1.25949e-06
0.510478
1.62889e-06
0.510478
1.88806e-06
0.510478
1.89305e-06
0.510478
1.75704e-06
0.510479
1.65913e-06
0.510479
1.7149e-06
0.510479
1.79325e-06
0.510479
1.71995e-06
0.510479
1.56399e-06
0.510479
1.40825e-06
0.51048
1.25566e-06
0.51048
1.22827e-06
0.510481
1.42237e-06
0.510481
1.71269e-06
0.510481
1.92552e-06
0.510481
2.02811e-06
0.510481
2.08522e-06
0.510481
2.11443e-06
0.510481
2.08131e-06
0.510481
1.96557e-06
0.510481
1.79346e-06
0.510482
1.56671e-06
0.510482
1.28803e-06
0.510482
1.11632e-06
0.510482
1.21845e-06
0.510483
1.45701e-06
0.510483
1.58195e-06
0.510483
1.617e-06
0.510483
1.68432e-06
0.510483