/*--------------------------------*- C++ -*----------------------------------*\
| =========                 |                                                 |
| \\      /  F ield         | OpenFOAM: The Open Source CFD Toolbox           |
|  \\    /   O peration     | Version:  2406                                  |
|   \\  /    A nd           | Website:  www.openfoam.com                      |
|    \\/     M anipulation  |                                                 |
\*---------------------------------------------------------------------------*/
FoamFile
{
    version     2.0;
    format      ascii;
    arch        "LSB;label=32;scalar=64";
    class       volScalarField;
    location    "1.3";
    object      p;
}
// * * * * * * * * * * * * * * * * * * * * * * * * * * * * * * * * * * * * * //

dimensions      [1 -1 -2 0 0 0 0];

internalField   nonuniform List<scalar> 
6250
(
6.70381
-3206.79
-1020.95
551.84
506.496
38.3167
-121.87
-44.7009
31.512
37.7816
17.6184
8.01496
10.2428
13.8785
14.5623
13.6956
13.1081
13.0885
13.1995
13.1969
13.1105
13.0209
12.9638
12.9177
12.864
12.8101
12.7541
12.6928
12.6326
12.5743
12.518
12.4623
12.4059
12.3489
12.2921
12.2355
12.1792
12.1188
12.0601
12.0105
11.954
11.8884
11.8273
11.7723
11.7198
11.664
11.6042
11.5459
11.4906
11.4345
11.3748
11.3161
11.2597
11.2004
11.1422
11.0891
11.0337
10.9738
10.9172
10.8622
10.8018
10.7426
10.6887
10.6315
10.5698
10.5108
10.4517
10.3891
10.3307
10.2743
10.2132
10.1527
10.0933
10.0332
9.97644
9.92136
9.86727
9.81236
9.75227
9.69307
9.63738
9.58068
9.5262
9.47279
9.41632
9.36079
9.30755
9.25476
9.20113
9.14575
9.09177
9.03973
8.98446
8.92591
8.87046
8.81978
8.76954
8.71847
8.66911
8.61906
8.56375
8.50662
8.45031
8.39255
8.33723
8.28613
8.23276
8.17522
8.1162
8.05781
8.00232
7.95039
7.90029
7.8473
7.78896
7.72972
7.67053
7.60993
7.55165
7.49585
7.44028
7.38435
7.32425
7.26015
7.1972
7.1374
7.08126
7.02701
6.97232
6.91788
6.86152
6.80025
6.73539
6.67033
6.60872
6.55076
6.49457
6.43978
6.38297
6.32072
6.25528
6.1889
6.12181
6.05597
5.99374
5.93582
5.88001
5.82343
5.76713
5.71138
5.65267
5.5909
5.52847
5.4659
5.40494
5.34764
5.2946
5.24399
5.19248
5.13993
5.08701
5.03313
4.97853
4.92214
4.86384
4.80557
4.74859
4.69531
4.64637
4.59811
4.54806
4.49592
4.44111
4.38394
4.32564
4.26726
4.20939
4.15136
4.09229
4.03387
3.9786
3.92577
3.87286
3.81906
3.76513
3.71037
3.65292
3.59289
3.53121
3.46878
3.40709
3.34647
3.28655
3.22707
3.16763
3.10911
3.05166
2.99421
2.93729
2.88093
2.82375
2.76636
2.70928
2.65062
2.59096
2.53268
2.47469
2.41626
2.35907
2.30212
2.24434
2.18793
2.13344
2.07867
2.02241
1.96514
1.90705
1.84799
1.78875
1.72997
1.67112
1.61157
1.55207
1.49371
1.43561
1.37711
1.3201
1.26477
1.20878
1.15222
1.09684
1.04221
0.987063
0.932022
0.878599
0.825812
0.770777
0.712746
0.653793
0.596247
0.540615
0.485153
0.42754
0.368596
0.311195
0.255182
0.199198
0.142773
0.0884035
0.0257534
6.66948
-3206.86
-1020.99
551.843
506.503
38.3149
-121.875
-44.6982
31.5145
37.7875
17.6241
8.0098
10.2355
13.878
14.5642
13.6927
13.105
13.0876
13.1992
13.1975
13.1135
13.0254
12.9644
12.9156
12.8601
12.8031
12.7485
12.6923
12.6369
12.5803
12.5221
12.4648
12.4069
12.3469
12.2878
12.2301
12.178
12.1242
12.0598
12.0007
11.9487
11.8938
11.8353
11.7741
11.7163
11.6625
11.6061
11.5466
11.487
11.4309
11.3753
11.3172
11.2601
11.2025
11.1419
11.0833
11.029
10.9742
10.9192
10.8668
10.8102
10.7465
10.6833
10.625
10.5672
10.5094
10.4533
10.3941
10.3345
10.2762
10.2131
10.1509
10.0926
10.0339
9.97727
9.92014
9.86205
9.80757
9.75143
9.6946
9.64136
9.58424
9.52432
9.46852
9.41502
9.36259
9.30966
9.25568
9.20145
9.14413
9.08674
9.0358
8.98699
8.9322
8.874
8.8199
8.76939
8.71771
8.66638
8.61673
8.56233
8.504
8.4497
8.3966
8.34119
8.28694
8.23225
8.17441
8.11555
8.05775
8.00172
7.94777
7.8976
7.84804
7.79153
7.73051
7.67039
7.61055
7.55356
7.4983
7.44022
7.38178
7.32274
7.26051
7.19774
7.13679
7.08043
7.02851
6.97524
6.91906
6.86074
6.79883
6.73383
6.66867
6.60778
6.55171
6.49617
6.44051
6.38418
6.32238
6.25474
6.18593
6.11863
6.05405
5.99313
5.93649
5.88302
5.82731
5.76761
5.70823
5.64903
5.58826
5.52749
5.46714
5.40729
5.34886
5.29412
5.24432
5.19521
5.1432
5.08806
5.03007
4.97179
4.91489
4.85975
4.80714
4.75464
4.70119
4.64918
4.59797
4.54577
4.49293
4.43922
4.38356
4.32563
4.26592
4.20649
4.14982
4.09467
4.03847
3.98222
3.92777
3.87387
3.8185
3.76268
3.70759
3.65146
3.59329
3.53328
3.47111
3.40769
3.34443
3.2829
3.22408
3.16664
3.11
3.05412
2.99696
2.93877
2.88154
2.82402
2.76553
2.70802
2.65037
2.59074
2.53179
2.47428
2.41638
2.35975
2.3047
2.2479
2.18938
2.13195
2.076
2.02006
1.96372
1.90728
1.84999
1.79112
1.73119
1.67122
1.61144
1.55186
1.49369
1.43648
1.37779
1.31875
1.26242
1.20775
1.15232
1.09689
1.04295
0.989314
0.933896
0.87757
0.822666
0.769187
0.71491
0.657865
0.598282
0.538661
0.481454
0.425311
0.367662
0.310108
0.25426
0.198615
0.142118
0.0843735
0.0293629
6.66898
-3206.84
-1020.97
551.851
506.51
38.3139
-121.878
-44.6986
31.5171
37.7898
17.6257
8.01434
10.2394
13.8769
14.5632
13.6961
13.106
13.0859
13.1977
13.1936
13.1112
13.0271
12.9686
12.9214
12.8647
12.806
12.7493
12.6901
12.6345
12.5804
12.522
12.4632
12.4048
12.3469
12.2931
12.236
12.1759
12.12
12.0612
12.0022
11.9467
11.891
11.8345
11.7768
11.7208
11.6649
11.6046
11.545
11.4899
11.4352
11.3762
11.315
11.2579
11.2027
11.145
11.0871
11.0305
10.9743
10.9187
10.8626
10.8048
10.747
10.6889
10.6294
10.5688
10.5078
10.4491
10.3909
10.3331
10.277
10.2154
10.1503
10.0896
10.0321
9.97789
9.92307
9.86452
9.80829
9.7523
9.69387
9.63867
9.58375
9.52634
9.4706
9.41687
9.36425
9.31018
9.25355
9.19868
9.14492
9.0894
9.03576
8.98498
8.93099
8.87268
8.81784
8.77012
8.72194
8.66889
8.61652
8.56346
8.50534
8.44829
8.39464
8.34039
8.28651
8.23199
8.17352
8.11379
8.05823
8.00729
7.9548
7.89925
7.84419
7.78684
7.72725
7.66956
7.61163
7.55498
7.5015
7.44478
7.38366
7.32044
7.25549
7.1933
7.1356
7.08161
7.03125
6.97877
6.92026
6.85861
6.79614
6.73317
6.66991
6.609
6.5526
6.49715
6.44004
6.38183
6.32052
6.25473
6.18704
6.12046
6.05641
5.99455
5.9349
5.87966
5.82648
5.76991
5.71095
5.65085
5.58811
5.5253
5.46508
5.40727
5.35079
5.29547
5.24309
5.19284
5.14205
5.08935
5.03341
4.97525
4.91655
4.85846
4.80387
4.75221
4.70052
4.64962
4.59976
4.54867
4.49561
4.44076
4.3838
4.32537
4.26616
4.20625
4.14775
4.09186
4.03644
3.98107
3.92764
3.87559
3.82193
3.76575
3.70861
3.65069
3.59137
3.53065
3.46869
3.40699
3.34635
3.28624
3.22693
3.16766
3.10861
3.05185
2.99596
2.93871
2.8816
2.82459
2.7659
2.70737
2.64989
2.59077
2.53139
2.4741
2.41638
2.35818
2.30228
2.24746
2.19143
2.1346
2.07775
2.02054
1.96292
1.90556
1.84827
1.78998
1.73065
1.67154
1.61291
1.55337
1.49366
1.43594
1.37873
1.32017
1.2622
1.20619
1.15103
1.09615
1.04215
0.989017
0.93531
0.880044
0.82397
0.767995
0.712268
0.656332
0.599065
0.540012
0.481464
0.424974
0.368405
0.310986
0.254208
0.198331
0.142219
0.0854343
0.0290661
6.67243
-3206.85
-1020.99
551.845
506.504
38.309
-121.874
-44.7042
31.5066
37.7819
17.6244
8.01345
10.2393
13.8772
14.5605
13.6971
13.1093
13.0832
13.1977
13.194
13.1037
13.0233
12.9697
12.9221
12.8666
12.803
12.7434
12.6908
12.6361
12.5765
12.517
12.463
12.4091
12.3489
12.2896
12.2335
12.1777
12.1219
12.0646
12.0039
11.9443
11.8898
11.8339
11.7732
11.716
11.6636
11.6095
11.5502
11.4861
11.4268
11.376
11.3196
11.2574
11.201
11.1456
11.0861
11.03
10.9762
10.9178
10.8588
10.8026
10.7465
10.6889
10.6306
10.5708
10.5086
10.4492
10.3925
10.3334
10.2734
10.2127
10.1512
10.0917
10.0339
9.97818
9.92179
9.86203
9.80588
9.75276
9.69595
9.63831
9.58184
9.52574
9.47047
9.41534
9.36222
9.30972
9.25445
9.20024
9.14793
9.09221
9.03458
8.98106
8.9297
8.87397
8.81697
8.76784
8.72288
8.67127
8.61551
8.56046
8.50406
8.4495
8.39817
8.34365
8.28604
8.22919
8.17202
8.11326
8.05608
8.00487
7.95604
7.903
7.84682
7.78738
7.72514
7.66668
7.61133
7.55577
7.50131
7.44431
7.38297
7.32011
7.25641
7.1947
7.13667
7.08104
7.02901
6.97766
6.92113
6.85905
6.79479
6.73141
6.66923
6.60892
6.55297
6.4992
6.44263
6.38237
6.31919
6.2528
6.18447
6.11748
6.05474
5.99563
5.93721
5.88072
5.82694
5.77063
5.71059
5.64965
5.58727
5.52431
5.46347
5.40598
5.35171
5.29869
5.24598
5.19366
5.14094
5.08713
5.03159
4.97508
4.91782
4.85939
4.80297
4.75052
4.69998
4.65017
4.6002
4.54845
4.49472
4.43952
4.38269
4.32492
4.26682
4.20731
4.1477
4.09104
4.03619
3.98088
3.92618
3.87362
3.8218
3.7677
3.71057
3.65147
3.59135
3.53053
3.46874
3.40678
3.34532
3.28444
3.22548
3.16758
3.10886
3.05135
2.99574
2.93911
2.8817
2.82475
2.76627
2.70702
2.64961
2.59151
2.53183
2.47395
2.41685
2.35848
2.30107
2.24543
2.18997
2.13429
2.07869
2.0226
1.96515
1.90676
1.84848
1.79021
1.73077
1.67065
1.61183
1.55337
1.49375
1.43503
1.3781
1.32084
1.26328
1.20709
1.15197
1.09669
1.04149
0.987493
0.934291
0.880292
0.82497
0.768601
0.711622
0.654865
0.59841
0.54082
0.48213
0.424503
0.367866
0.310685
0.253461
0.197228
0.142024
0.0858935
0.0289058
6.66168
-3206.86
-1020.99
551.842
506.503
38.3109
-121.879
-44.6983
31.5189
37.7873
17.6236
8.01106
10.2365
13.8779
14.5609
13.6939
13.1107
13.0894
13.2003
13.1995
13.11
13.0224
12.9664
12.9178
12.8665
12.8108
12.7511
12.6938
12.636
12.5769
12.5199
12.4635
12.406
12.3483
12.2921
12.2334
12.174
12.1171
12.0623
12.0073
11.9482
11.8908
11.8354
11.7747
11.7165
11.6638
11.6077
11.5504
11.4924
11.4307
11.3729
11.3184
11.2592
11.2007
11.146
11.0887
11.0306
10.9768
10.9202
10.8595
10.8019
10.7469
10.6896
10.63
10.5692
10.5075
10.4489
10.3932
10.3339
10.273
10.2127
10.1515
10.0918
10.0334
9.97649
9.9217
9.86431
9.80671
9.75222
9.69605
9.63865
9.58278
9.52743
9.47228
9.41688
9.36263
9.30956
9.2541
9.19848
9.14679
9.09468
9.03721
8.97857
8.92574
8.87598
8.82262
8.7697
8.72086
8.66917
8.61404
8.56095
8.50652
8.45049
8.39743
8.34391
8.28661
8.22826
8.17098
8.11469
8.05901
8.00639
7.95608
7.90186
7.84449
7.78645
7.72609
7.66769
7.61298
7.55782
7.5025
7.44505
7.38257
7.3179
7.25381
7.19338
7.13779
7.08384
7.03053
6.97722
6.9205
6.85846
6.79333
6.73002
6.66967
6.61045
6.55372
6.49938
6.44287
6.382
6.31826
6.25239
6.18473
6.11751
6.05424
5.99627
5.9398
5.88236
5.8263
5.76996
5.71033
5.64939
5.58801
5.5258
5.46427
5.40551
5.35092
5.29914
5.24788
5.19591
5.14235
5.08695
5.02962
4.97204
4.91604
4.86035
4.80524
4.75257
4.70143
4.65062
4.60014
4.54908
4.49593
4.44032
4.38233
4.323
4.26474
4.20702
4.14834
4.09099
4.03644
3.98264
3.92821
3.87399
3.82063
3.76669
3.71075
3.65252
3.59215
3.53054
3.46823
3.40618
3.3452
3.28453
3.22517
3.16786
3.11017
3.05211
2.9956
2.93895
2.88126
2.82449
2.76705
2.70729
2.64843
2.59063
2.53149
2.47339
2.41718
2.36
2.30217
2.24551
2.18971
2.13394
2.07804
2.022
1.96525
1.90731
1.8487
1.79028
1.73147
1.67144
1.61202
1.55397
1.495
1.4355
1.37773
1.32071
1.26313
1.20633
1.15141
1.09726
1.04252
0.987584
0.933349
0.879428
0.825005
0.769496
0.712476
0.654604
0.597242
0.539916
0.481613
0.423879
0.367581
0.31133
0.25457
0.197739
0.141565
0.0854078
0.0289012
6.66319
-3206.86
-1020.99
551.841
506.507
38.3087
-121.883
-44.7048
31.5087
37.7838
17.6235
8.01161
10.2379
13.8774
14.5617
13.6942
13.1062
13.0833
13.1948
13.1955
13.1124
13.025
12.9645
12.9145
12.8636
12.8112
12.7506
12.6891
12.6327
12.5761
12.5187
12.4656
12.4104
12.3445
12.2846
12.2366
12.1834
12.1194
12.056
12.0024
11.9514
11.8936
11.8311
11.771
11.7172
11.6655
11.6082
11.5474
11.489
11.4312
11.3747
11.3192
11.2595
11.1997
11.145
11.0893
11.0295
10.9725
10.9183
10.8607
10.8029
10.747
10.6885
10.6283
10.5695
10.5088
10.4479
10.3919
10.3344
10.2726
10.2116
10.1509
10.0914
10.0332
9.975
9.92025
9.86572
9.80821
9.75207
9.6956
9.63677
9.58024
9.52693
9.47361
9.41794
9.36135
9.30743
9.25512
9.20121
9.14647
9.09271
9.03754
8.97911
8.92343
8.87373
8.82317
8.7709
8.72174
8.67015
8.61261
8.55729
8.50584
8.4532
8.39971
8.34414
8.28473
8.22519
8.16895
8.11565
8.06219
8.00851
7.95654
7.90172
7.84263
7.78355
7.72467
7.66798
7.61476
7.56022
7.50317
7.4437
7.38084
7.31679
7.25312
7.19245
7.13736
7.08474
7.03136
6.97646
6.91901
6.85771
6.79287
6.7289
6.66901
6.61118
6.55432
6.49904
6.44278
6.38181
6.31671
6.25048
6.18407
6.11759
6.05343
5.99482
5.94009
5.88446
5.82788
5.77054
5.71004
5.64744
5.58533
5.52455
5.46522
5.4074
5.35219
5.29957
5.24798
5.19596
5.14239
5.08722
5.03001
4.97149
4.91443
4.85893
4.80425
4.75188
4.70192
4.65216
4.6011
4.5488
4.49498
4.43959
4.38259
4.32318
4.26333
4.20522
4.14734
4.08988
4.03493
3.98192
3.92903
3.87564
3.82194
3.76703
3.71008
3.65139
3.59134
3.53047
3.46853
3.40601
3.34479
3.28436
3.22449
3.16684
3.10991
3.05208
2.9953
2.93913
2.88121
2.8234
2.76656
2.70789
2.64871
2.59081
2.53161
2.47206
2.41508
2.35913
2.30255
2.24601
2.19001
2.13431
2.07847
2.02226
1.96551
1.90779
1.84896
1.79006
1.73156
1.672
1.61205
1.55375
1.49551
1.43599
1.37739
1.32051
1.26373
1.20656
1.15034
1.09611
1.04276
0.988751
0.934038
0.878906
0.823671
0.768597
0.712375
0.654299
0.596569
0.539928
0.482363
0.424151
0.366982
0.310304
0.253614
0.19729
0.141507
0.0853547
0.0284992
6.65917
-3206.87
-1021.01
551.831
506.504
38.3093
-121.882
-44.7073
31.5115
37.7915
17.6243
8.00645
10.2383
13.8816
14.5625
13.6936
13.1091
13.0875
13.1978
13.1966
13.1109
13.0237
12.9672
12.9205
12.8656
12.8083
12.7492
12.693
12.6387
12.5823
12.5207
12.4585
12.4057
12.351
12.2901
12.2327
12.1768
12.1193
12.0624
12.0064
11.9489
11.8903
11.8324
11.7746
11.7181
11.664
11.607
11.5476
11.4928
11.4354
11.374
11.3163
11.2598
11.2018
11.1456
11.0906
11.0329
10.9738
10.9178
10.8625
10.8042
10.745
10.6867
10.628
10.5695
10.5099
10.4486
10.3905
10.3336
10.2739
10.2131
10.1501
10.089
10.0335
9.97718
9.92104
9.86662
9.80879
9.75087
9.69588
9.63946
9.58175
9.52577
9.47211
9.41892
9.36402
9.30918
9.25626
9.20282
9.14639
9.08965
9.03531
8.98028
8.92546
8.87614
8.82663
8.77096
8.71704
8.66745
8.61473
8.56009
8.50712
8.45344
8.39916
8.34413
8.28556
8.22493
8.16707
8.11499
8.06485
8.01154
7.95715
7.90134
7.84206
7.78298
7.72487
7.66825
7.61533
7.56211
7.50502
7.44393
7.37956
7.31541
7.25275
7.19242
7.13741
7.08589
7.0333
6.97727
6.91763
6.85559
6.79164
6.72811
6.66894
6.61313
6.55699
6.5
6.44225
6.38115
6.31543
6.2482
6.18253
6.11856
6.05592
5.99647
5.94095
5.88563
5.82845
5.77028
5.7101
5.64759
5.5848
5.5241
5.4661
5.40948
5.35433
5.30106
5.24868
5.1961
5.14217
5.08683
5.02987
4.97122
4.91368
4.85882
4.80538
4.75304
4.70235
4.6526
4.6021
4.54999
4.49564
4.43907
4.38165
4.32277
4.26265
4.20424
4.14752
4.09094
4.0355
3.98194
3.92916
3.8759
3.82223
3.7679
3.71152
3.6524
3.59117
3.52953
3.46797
3.40597
3.34489
3.28482
3.22477
3.16642
3.10988
3.05249
2.99503
2.93909
2.88213
2.82375
2.76623
2.70784
2.64823
2.59037
2.53257
2.47302
2.41448
2.35797
2.30213
2.24639
2.19069
2.13492
2.07887
2.02254
1.96588
1.9084
1.84952
1.79012
1.73181
1.67324
1.61308
1.55363
1.49566
1.4371
1.37806
1.32027
1.26381
1.2075
1.15107
1.09554
1.04145
0.988029
0.934337
0.879584
0.823676
0.767973
0.712499
0.655125
0.596229
0.538207
0.481028
0.423818
0.366979
0.310993
0.254702
0.197628
0.141186
0.0847543
0.0285043
6.65041
-3206.88
-1021
551.837
506.502
38.3108
-121.881
-44.7076
31.5087
37.7848
17.6245
8.01116
10.2366
13.8779
14.56
13.6916
13.107
13.0888
13.2012
13.1946
13.1097
13.0281
12.9666
12.9139
12.8607
12.8068
12.7495
12.6915
12.6356
12.5785
12.5176
12.4604
12.4099
12.3512
12.2885
12.2325
12.1767
12.1194
12.0613
12.0041
11.9481
11.8901
11.8312
11.7751
11.7207
11.665
11.6051
11.5452
11.4924
11.4372
11.374
11.3143
11.2586
11.2021
11.1463
11.0904
11.0318
10.9736
10.9179
10.8612
10.8022
10.7442
10.6873
10.6285
10.5685
10.5083
10.4474
10.3898
10.3336
10.2735
10.2117
10.1488
10.0877
10.0334
9.97866
9.92125
9.86607
9.80841
9.74849
9.69312
9.63972
9.58433
9.52751
9.47101
9.41674
9.36322
9.30914
9.25638
9.20376
9.14717
9.088
9.03262
8.98032
8.92642
8.87488
8.82685
8.77409
8.7176
8.66428
8.6118
8.55866
8.50772
8.45586
8.40018
8.34245
8.28389
8.22472
8.16688
8.11442
8.06587
8.01408
7.95829
7.90008
7.83931
7.78069
7.72538
7.67054
7.61697
7.56249
7.50426
7.44253
7.37756
7.31337
7.2526
7.19371
7.13782
7.08506
7.03225
6.97653
6.91679
6.85458
6.79137
6.72808
6.66765
6.61156
6.55685
6.50042
6.44191
6.38041
6.31465
6.24663
6.1803
6.11758
6.05702
5.99783
5.94152
5.88605
5.82839
5.7693
5.70914
5.64728
5.58454
5.52347
5.46577
5.41025
5.35605
5.3029
5.24982
5.19624
5.14122
5.08507
5.02866
4.97094
4.91305
4.8577
4.80489
4.75358
4.70334
4.65344
4.60243
4.54975
4.49509
4.43808
4.38043
4.32227
4.26219
4.20253
4.14536
4.08965
4.03514
3.98219
3.93
3.87709
3.82288
3.76736
3.71044
3.65195
3.59134
3.52943
3.46747
3.40522
3.34384
3.28429
3.22491
3.16606
3.10935
3.05279
2.99504
2.93824
2.88168
2.82337
2.76556
2.70801
2.64829
2.58895
2.53132
2.47306
2.41458
2.35749
2.3016
2.24621
2.1908
2.13518
2.07919
2.0227
1.96578
1.90844
1.85004
1.79035
1.73126
1.67326
1.61423
1.55453
1.49586
1.43739
1.37833
1.31988
1.26294
1.20691
1.15113
1.09586
1.04143
0.987499
0.933682
0.879505
0.823797
0.766886
0.710615
0.65432
0.596665
0.538856
0.481374
0.423854
0.36631
0.309742
0.253727
0.197318
0.141084
0.0844352
0.0284195
6.65248
-3206.87
-1021
551.825
506.5
38.3128
-121.878
-44.7085
31.5049
37.7858
17.6264
8.0122
10.2359
13.8755
14.5605
13.6958
13.1105
13.0848
13.1963
13.1979
13.1122
13.0271
12.9677
12.9198
12.8671
12.8086
12.7486
12.6915
12.6364
12.5804
12.5203
12.4594
12.4077
12.3544
12.291
12.2293
12.1748
12.1213
12.0632
12.0037
11.9463
11.8912
11.8365
11.7766
11.715
11.6615
11.6097
11.549
11.4901
11.436
11.3765
11.3168
11.2611
11.2025
11.143
11.0895
11.0365
10.9776
10.9178
10.86
10.8006
10.7416
10.6869
10.6306
10.569
10.5079
10.4482
10.3899
10.3333
10.2729
10.2104
10.1483
10.0876
10.0342
9.98237
9.92386
9.86507
9.80761
9.74896
9.69352
9.64032
9.58512
9.52785
9.47058
9.4174
9.36679
9.31255
9.25621
9.20184
9.14632
9.08753
9.03157
8.98165
8.9313
8.8783
8.82615
8.77176
8.71488
8.66248
8.61367
8.56256
8.50967
8.45599
8.39915
8.33959
8.28109
8.22534
8.17063
8.11763
8.06715
8.01389
7.95703
7.89958
7.83972
7.78091
7.7263
7.67208
7.61808
7.56312
7.5041
7.44218
7.37721
7.31182
7.25137
7.1949
7.14029
7.08699
7.0329
6.97583
6.91484
6.85192
6.78994
6.72916
6.66993
6.61335
6.55798
6.50065
6.44058
6.37838
6.31364
6.24649
6.17966
6.11715
6.05853
6.00061
5.94384
5.8876
5.82898
5.76836
5.70735
5.64662
5.58586
5.5253
5.4671
5.41142
5.35721
5.30414
5.25108
5.19747
5.14217
5.08466
5.02716
4.97008
4.91303
4.85794
4.80554
4.7546
4.70432
4.65429
4.60328
4.55064
4.49598
4.43815
4.37898
4.32067
4.2617
4.20234
4.14507
4.08991
4.03589
3.98268
3.9301
3.87754
3.82396
3.76867
3.71136
3.65217
3.59106
3.52892
3.46729
3.40551
3.34371
3.28394
3.2254
3.16663
3.10911
3.05261
2.99506
2.93801
2.88215
2.82439
2.76563
2.7078
2.64864
2.58873
2.53045
2.47269
2.41467
2.3574
2.30145
2.24638
2.19131
2.13603
2.08042
2.02384
1.96612
1.9082
1.85046
1.79167
1.73219
1.67361
1.61494
1.55537
1.49627
1.43797
1.37932
1.32054
1.26297
1.20686
1.15125
1.09593
1.04148
0.987403
0.93299
0.878748
0.824107
0.767769
0.710834
0.653943
0.596047
0.5379
0.480458
0.423411
0.366326
0.309965
0.254181
0.198269
0.142143
0.0851551
0.0283833
6.65122
-3206.88
-1021.01
551.832
506.497
38.3089
-121.879
-44.7082
31.5071
37.7838
17.6282
8.01323
10.232
13.8772
14.5686
13.6969
13.1046
13.0839
13.198
13.1971
13.1109
13.025
12.9654
12.9181
12.8661
12.8092
12.7477
12.689
12.6368
12.5798
12.5211
12.4647
12.405
12.3459
12.293
12.2361
12.1739
12.1172
12.0619
12.0041
11.9471
11.8905
11.8342
11.7777
11.7198
11.6624
11.6057
11.5471
11.4899
11.4353
11.378
11.3187
11.2599
11.2014
11.1444
11.0899
11.0358
10.9775
10.9158
10.8564
10.8002
10.744
10.6876
10.6286
10.5658
10.5061
10.4495
10.3908
10.3308
10.2692
10.2079
10.1494
10.091
10.035
9.98101
9.9223
9.86243
9.80551
9.74873
9.69431
9.6416
9.58619
9.52807
9.46915
9.41498
9.36669
9.31523
9.2569
9.19857
9.14376
9.08859
9.03316
8.98156
8.93095
8.87785
8.8253
8.77216
8.71542
8.66057
8.61127
8.56248
8.51043
8.45555
8.3984
8.33901
8.27968
8.2242
8.17092
8.1182
8.06804
8.01557
7.95721
7.89792
7.83849
7.78029
7.72692
7.67394
7.61916
7.5627
7.50205
7.43932
7.37574
7.31162
7.25162
7.19615
7.14163
7.08658
7.03074
6.97354
6.91354
6.85118
6.7893
6.72895
6.66964
6.61235
6.55699
6.50024
6.43987
6.37628
6.31138
6.24588
6.17973
6.11653
6.0584
6.00146
5.94453
5.88798
5.82954
5.76872
5.70655
5.64472
5.58459
5.52552
5.46812
5.41293
5.35891
5.30539
5.25137
5.19682
5.14138
5.08375
5.0256
4.96864
4.91243
4.85787
4.80591
4.75546
4.70523
4.65474
4.60289
4.54947
4.49507
4.43797
4.37838
4.31943
4.26084
4.20154
4.14331
4.08776
4.03479
3.98317
3.93151
3.87879
3.82436
3.76817
3.71038
3.65138
3.59084
3.52857
3.46658
3.40535
3.3437
3.28302
3.22429
3.16604
3.10873
3.05289
2.99572
2.93736
2.88066
2.8237
2.76525
2.70736
2.64874
2.58867
2.52957
2.47173
2.41412
2.357
2.30104
2.24622
2.19143
2.13597
2.08014
2.024
1.96686
1.90871
1.85052
1.79177
1.73213
1.67336
1.61548
1.55666
1.49713
1.43811
1.37935
1.32038
1.2622
1.2058
1.15068
1.09598
1.0416
0.987459
0.932992
0.878263
0.823172
0.76657
0.709231
0.652811
0.596062
0.53815
0.480269
0.423225
0.366431
0.309446
0.252733
0.196881
0.141353
0.0851576
0.0287839
6.65353
-3206.87
-1021
551.831
506.494
38.3092
-121.878
-44.7062
31.5078
37.7848
17.6211
8.01161
10.2416
13.8766
14.5572
13.6935
13.1103
13.0888
13.1983
13.1955
13.1107
13.0279
12.9683
12.9199
12.8688
12.8117
12.7486
12.6874
12.6356
12.5813
12.5209
12.4629
12.4043
12.3452
12.2917
12.2379
12.1762
12.1155
12.0606
12.0064
11.9496
11.891
11.8334
11.7761
11.7184
11.663
11.6079
11.5491
11.4909
11.4362
11.3797
11.3199
11.2588
11.2004
11.1457
11.0919
11.0359
10.9758
10.9151
10.858
10.8027
10.7446
10.6853
10.6264
10.5657
10.5069
10.4511
10.3922
10.3299
10.2666
10.206
10.1504
10.0948
10.0377
9.98153
9.92168
9.86091
9.80549
9.75131
9.69657
9.64151
9.58453
9.52815
9.47205
9.41698
9.36712
9.31721
9.25925
9.19717
9.13969
9.08727
9.036
8.98613
8.93594
8.88025
8.82215
8.76701
8.71371
8.66189
8.61372
8.56568
8.51265
8.45464
8.39489
8.33583
8.27836
8.22547
8.17587
8.12288
8.06803
8.01339
7.95535
7.89741
7.84049
7.78284
7.72817
7.67482
7.61934
7.56214
7.50118
7.43794
7.37521
7.31244
7.25219
7.19678
7.14358
7.08895
7.03135
6.97189
6.91108
6.84887
6.78779
6.72975
6.67295
6.61559
6.55785
6.49928
6.4383
6.37431
6.30894
6.24477
6.18107
6.11837
6.05997
6.00385
5.94649
5.88848
5.82913
5.7682
5.70638
5.64482
5.58512
5.52682
5.46975
5.41453
5.36057
5.30719
5.25289
5.19729
5.1413
5.08365
5.02479
4.96767
4.9123
4.85829
4.80646
4.75641
4.70656
4.65625
4.60436
4.55007
4.49472
4.43766
4.37757
4.31726
4.25886
4.20146
4.14479
4.08943
4.03576
3.9832
3.93101
3.87866
3.82514
3.76958
3.71156
3.6518
3.59098
3.52857
3.4659
3.40468
3.34387
3.28352
3.22491
3.16664
3.10815
3.05159
2.99575
2.93838
2.88137
2.82436
2.76537
2.70651
2.64813
2.58867
2.52936
2.47126
2.41407
2.35747
2.30149
2.24651
2.19207
2.13705
2.08105
2.0244
1.96698
1.9088
1.851
1.79328
1.7341
1.67447
1.61573
1.55692
1.49752
1.43843
1.38007
1.32182
1.26358
1.2062
1.15024
1.09543
1.04128
0.987309
0.9327
0.877497
0.822718
0.767348
0.71012
0.652503
0.595188
0.537703
0.48025
0.422663
0.365836
0.3098
0.253391
0.197453
0.141978
0.0854029
0.0286556
6.65428
-3206.88
-1021
551.83
506.497
38.3058
-121.883
-44.706
31.5067
37.7829
17.6272
8.01497
10.2364
13.8767
14.5656
13.6975
13.1082
13.0863
13.1985
13.1964
13.1111
13.0269
12.9639
12.9148
12.8663
12.8085
12.7485
12.6927
12.639
12.5787
12.5174
12.4633
12.4069
12.3479
12.2925
12.2342
12.1728
12.117
12.0633
12.0051
11.9459
11.8896
11.8345
11.779
11.7213
11.6607
11.6026
11.5503
11.4966
11.4362
11.3755
11.3178
11.2596
11.2035
11.1493
11.0912
11.0317
10.9728
10.9138
10.8577
10.8035
10.7456
10.6847
10.6242
10.5645
10.5065
10.4495
10.3897
10.3281
10.267
10.207
10.1514
10.096
10.0358
9.97624
9.91857
9.86095
9.80709
9.75384
9.69794
9.64068
9.58166
9.52543
9.47325
9.4204
9.36747
9.31489
9.25786
9.19642
9.13857
9.08774
9.03813
8.98643
8.93419
8.8795
8.82178
8.76637
8.71397
8.66259
8.61314
8.56412
8.51107
8.45302
8.3936
8.33585
8.27919
8.22463
8.17445
8.1235
8.06943
8.01407
7.95524
7.89554
7.83942
7.78403
7.72983
7.67605
7.6194
7.56053
7.49865
7.43499
7.37339
7.31342
7.25447
7.198
7.14346
7.08808
7.02965
6.96941
6.90908
6.84835
6.78754
6.7288
6.6718
6.61487
6.55724
6.49813
6.43681
6.37273
6.3068
6.24266
6.18099
6.1197
6.06073
6.00417
5.94699
5.88845
5.82886
5.76805
5.70622
5.64426
5.58437
5.52684
5.47083
5.41605
5.36187
5.30814
5.25343
5.19662
5.13954
5.0821
5.02375
4.96661
4.91187
4.85862
4.80692
4.75678
4.70671
4.65626
4.60464
4.54993
4.49336
4.43636
4.37725
4.31658
4.25712
4.19929
4.14281
4.08812
4.03565
3.98425
3.93258
3.87965
3.82497
3.76869
3.71064
3.65088
3.59037
3.5285
3.46556
3.40392
3.34345
3.28283
3.22377
3.16643
3.10869
3.05151
2.99539
2.93781
2.87994
2.82334
2.76548
2.70634
2.64756
2.58829
2.52882
2.4703
2.41304
2.35692
2.30152
2.24668
2.19215
2.13714
2.08112
2.02453
1.96742
1.90913
1.85048
1.7926
1.73453
1.6757
1.61684
1.55787
1.49831
1.43844
1.37899
1.32055
1.26301
1.20624
1.1505
1.09529
1.04056
0.986728
0.932767
0.877284
0.821381
0.765726
0.709209
0.652109
0.594775
0.53704
0.479562
0.422291
0.365831
0.310118
0.253535
0.196701
0.141087
0.0854303
0.0288813
6.65569
-3206.87
-1021
551.832
506.499
38.3123
-121.877
-44.7073
31.5071
37.7846
17.6191
8.00842
10.2396
13.8769
14.5598
13.6944
13.1105
13.0918
13.2002
13.192
13.1079
13.0316
12.9715
12.9171
12.8666
12.8086
12.7485
12.6932
12.6354
12.5761
12.5192
12.4646
12.408
12.3466
12.289
12.2349
12.1778
12.1194
12.0604
12.002
11.9464
11.893
11.8363
11.7767
11.7197
11.6632
11.607
11.553
11.4968
11.434
11.3725
11.3187
11.2637
11.2052
11.1477
11.0884
11.0297
10.9749
10.9196
10.8607
10.8012
10.7411
10.6815
10.6246
10.5679
10.5095
10.4492
10.3873
10.3253
10.2663
10.2095
10.1539
10.0979
10.0364
9.97372
9.91621
9.86218
9.81003
9.75654
9.69917
9.64006
9.58079
9.52498
9.47435
9.42345
9.36981
9.31449
9.25726
9.19699
9.1381
9.08765
9.04135
8.99011
8.93477
8.87822
8.82008
8.76472
8.71461
8.66513
8.61521
8.56543
8.5112
8.45151
8.39026
8.33278
8.27994
8.22852
8.17764
8.12497
8.06868
8.01219
7.95504
7.89691
7.84099
7.78596
7.73134
7.67652
7.61875
7.55901
7.49754
7.43483
7.37403
7.31487
7.25646
7.19931
7.14357
7.08804
7.02991
6.9686
6.90702
6.84678
6.78748
6.72989
6.67421
6.61739
6.5576
6.49619
6.43391
6.37081
6.30623
6.24245
6.18176
6.12198
6.06293
6.00591
5.94859
5.88916
5.82821
5.76701
5.706
5.64522
5.58577
5.52824
5.47236
5.4177
5.36327
5.3092
5.2546
5.19764
5.13965
5.08182
5.02352
4.96616
4.9115
4.85904
4.80814
4.75828
4.70793
4.65679
4.60508
4.55093
4.49377
4.43558
4.37599
4.3153
4.25571
4.19869
4.14363
4.08952
4.03631
3.98422
3.93254
3.88032
3.82622
3.76997
3.71154
3.65099
3.58993
3.52847
3.46566
3.40354
3.34334
3.28348
3.22405
3.16625
3.1085
3.05079
2.99499
2.93885
2.881
2.82359
2.76561
2.70616
2.6467
2.58749
2.52846
2.47038
2.41341
2.35734
2.30193
2.24703
2.19254
2.13788
2.08212
2.02504
1.96767
1.90995
1.85157
1.79351
1.7356
1.67679
1.61737
1.55813
1.49898
1.43971
1.38057
1.32183
1.26342
1.20603
1.15028
1.09556
1.04075
0.98616
0.932009
0.877065
0.821333
0.765468
0.708894
0.6517
0.594531
0.537393
0.480144
0.422277
0.36483
0.309057
0.253766
0.197727
0.14147
0.085325
0.0289622
6.65289
-3206.88
-1021
551.832
506.496
38.3026
-121.881
-44.7029
31.5065
37.7833
17.6262
8.01368
10.2402
13.8772
14.5593
13.6974
13.1124
13.0873
13.1964
13.1951
13.1139
13.0301
12.9643
12.9103
12.8644
12.8133
12.7532
12.6911
12.631
12.5778
12.5257
12.4653
12.402
12.3436
12.2913
12.2386
12.1787
12.1166
12.0564
11.999
11.9474
11.8971
11.8382
11.7744
11.717
11.6635
11.6097
11.5543
11.4944
11.4321
11.373
11.321
11.2672
11.2062
11.1448
11.086
11.0287
10.9743
10.9191
10.8599
10.7991
10.7402
10.6827
10.6254
10.5668
10.5072
10.4459
10.384
10.3249
10.2691
10.2131
10.1543
10.0941
10.0323
9.97109
9.91567
9.86488
9.81346
9.75705
9.69687
9.63701
9.57915
9.52606
9.47689
9.42594
9.36991
9.31057
9.2528
9.19772
9.14224
9.08957
9.04104
8.98918
8.93248
8.87605
8.82007
8.76569
8.71627
8.66753
8.61503
8.56113
8.50655
8.44968
8.3919
8.33529
8.28096
8.22813
8.17619
8.12398
8.06875
8.01209
7.95492
7.89753
7.84201
7.78712
7.73213
7.67632
7.61719
7.5565
7.49541
7.43345
7.37351
7.31592
7.25885
7.20151
7.14338
7.08508
7.02643
6.96645
6.90624
6.84697
6.78825
6.72968
6.67239
6.61575
6.55726
6.4956
6.43202
6.36841
6.30452
6.24109
6.18107
6.12304
6.06474
6.00677
5.94877
5.88941
5.82837
5.76644
5.70491
5.64435
5.58557
5.52873
5.47366
5.41965
5.36498
5.30979
5.25419
5.19657
5.13788
5.07985
5.02237
4.96614
4.91196
4.85948
4.80836
4.75839
4.70844
4.657
4.60447
4.55008
4.49277
4.43412
4.37506
4.315
4.25495
4.19686
4.14172
4.08882
4.03687
3.98532
3.93339
3.88044
3.82577
3.76929
3.71105
3.65054
3.58895
3.52758
3.46555
3.40326
3.34262
3.28304
3.22363
3.16583
3.10884
3.05093
2.99402
2.93784
2.88012
2.82242
2.76519
2.70644
2.64676
2.58702
2.52755
2.46924
2.41253
2.35712
2.30232
2.24761
2.19275
2.13771
2.082
2.02507
1.9677
1.91022
1.8519
1.79338
1.73553
1.67752
1.61864
1.55931
1.49962
1.43924
1.37916
1.32063
1.26335
1.20642
1.15009
1.09506
1.0403
0.985364
0.931
0.876443
0.820982
0.765058
0.708585
0.651313
0.593421
0.5356
0.479087
0.422597
0.365296
0.308918
0.253297
0.19762
0.141544
0.0851592
0.0287765
6.6589
-3206.87
-1021
551.83
506.502
38.3107
-121.882
-44.7084
31.5119
37.7897
17.6256
8.00771
10.2314
13.877
14.565
13.6958
13.105
13.0861
13.2028
13.2001
13.1127
13.025
12.9645
12.9214
12.872
12.8086
12.7446
12.6882
12.6353
12.5839
12.5268
12.4599
12.3974
12.3462
12.2956
12.2377
12.1748
12.1154
12.0599
12.0046
11.9497
11.8943
11.8331
11.773
11.7221
11.6697
11.6109
11.5516
11.4912
11.4313
11.3768
11.3252
11.2683
11.2046
11.1419
11.0849
11.032
10.9795
10.9223
10.8583
10.7939
10.7365
10.6843
10.6294
10.5689
10.5061
10.4437
10.3828
10.3255
10.2708
10.2148
10.1546
10.0925
10.0314
9.97221
9.91755
9.86697
9.81531
9.75724
9.69523
9.63586
9.58043
9.52871
9.47884
9.42668
9.37113
9.31156
9.25211
9.19786
9.14516
9.09212
9.04175
8.98953
8.93193
8.87445
8.82002
8.76724
8.71762
8.66944
8.61723
8.56116
8.50414
8.44692
8.38985
8.33479
8.28289
8.23145
8.17859
8.12414
8.06718
8.01023
7.95469
7.8992
7.8446
7.78953
7.73303
7.67586
7.6159
7.5544
7.49411
7.43426
7.37537
7.31777
7.26042
7.20269
7.14406
7.08518
7.0257
6.96499
6.90429
6.84544
6.78894
6.73269
6.6752
6.61648
6.55608
6.49329
6.42925
6.36632
6.30457
6.24289
6.18246
6.1242
6.06632
6.00811
5.94958
5.89
5.82877
5.7667