/*--------------------------------*- C++ -*----------------------------------*\
| =========                 |                                                 |
| \\      /  F ield         | OpenFOAM: The Open Source CFD Toolbox           |
|  \\    /   O peration     | Version:  2406                                  |
|   \\  /    A nd           | Website:  www.openfoam.com                      |
|    \\/     M anipulation  |                                                 |
\*---------------------------------------------------------------------------*/
FoamFile
{
    version     2.0;
    format      ascii;
    arch        "LSB;label=32;scalar=64";
    class       surfaceScalarField;
    location    "1.3";
    object      phi;
}
// * * * * * * * * * * * * * * * * * * * * * * * * * * * * * * * * * * * * * //

dimensions      [0 3 -1 0 0 0 0];

oriented        oriented;

internalField   nonuniform List<scalar> 
12225
(
0.510449
1.93978e-06
0.510443
6.66449e-06
0.510435
7.58551e-06
0.510429
5.51301e-06
0.510425
4.83886e-06
0.510419
5.46423e-06
0.510413
5.79196e-06
0.510408
5.46653e-06
0.510403
5.31171e-06
0.510398
5.0414e-06
0.510392
5.26266e-06
0.510387
5.74159e-06
0.510381
5.72433e-06
0.510376
5.29979e-06
0.51037
5.24731e-06
0.510365
5.73966e-06
0.510359
5.88714e-06
0.510353
5.69603e-06
0.510348
5.41498e-06
0.510342
5.31133e-06
0.510337
5.40742e-06
0.510331
5.40677e-06
0.510326
5.63936e-06
0.51032
5.88892e-06
0.510314
5.82084e-06
0.510308
5.65855e-06
0.510303
5.42135e-06
0.510298
5.16504e-06
0.510293
4.8459e-06
0.510288
4.55973e-06
0.510284
4.62173e-06
0.510279
4.9346e-06
0.510274
5.22482e-06
0.510268
5.418e-06
0.510263
5.57705e-06
0.510257
5.61089e-06
0.510252
5.32415e-06
0.510247
5.06558e-06
0.510241
5.31863e-06
0.510236
5.72267e-06
0.51023
5.76789e-06
0.510224
5.52395e-06
0.510219
5.35986e-06
0.510213
5.52834e-06
0.510208
5.7315e-06
0.510202
5.62895e-06
0.510197
5.47315e-06
0.510191
5.55231e-06
0.510185
5.71596e-06
0.51018
5.68188e-06
0.510174
5.59005e-06
0.510168
5.73549e-06
0.510162
5.82312e-06
0.510157
5.60217e-06
0.510151
5.50093e-06
0.510146
5.67423e-06
0.51014
5.72751e-06
0.510134
5.71313e-06
0.510128
5.84434e-06
0.510123
5.75163e-06
0.510117
5.36298e-06
0.510112
5.19922e-06
0.510107
5.35059e-06
0.510101
5.43303e-06
0.510096
5.42072e-06
0.51009
5.45965e-06
0.510085
5.35766e-06
0.51008
5.11364e-06
0.510075
4.92006e-06
0.51007
4.8631e-06
0.510065
5.0628e-06
0.51006
5.30569e-06
0.510055
5.33083e-06
0.510049
5.22927e-06
0.510044
5.08988e-06
0.510039
5.12557e-06
0.510034
5.38629e-06
0.510028
5.54375e-06
0.510023
5.58851e-06
0.510017
5.58701e-06
0.510012
5.41307e-06
0.510006
5.32564e-06
0.510001
5.53726e-06
0.509995
5.77336e-06
0.509989
5.76103e-06
0.509984
5.52413e-06
0.509978
5.25316e-06
0.509973
5.02046e-06
0.509968
4.86691e-06
0.509963
5.01577e-06
0.509958
5.45819e-06
0.509952
5.77513e-06
0.509947
5.6981e-06
0.509941
5.45331e-06
0.509936
5.33785e-06
0.50993
5.27916e-06
0.509925
5.17667e-06
0.50992
5.16029e-06
0.509915
5.27726e-06
0.509909
5.39038e-06
0.509904
5.50202e-06
0.509898
5.63107e-06
0.509893
5.57162e-06
0.509887
5.30498e-06
0.509882
5.15839e-06
0.509877
5.208e-06
0.509872
5.25746e-06
0.509867
5.30947e-06
0.509861
5.47331e-06
0.509855
5.70427e-06
0.509849
5.89351e-06
0.509844
5.89601e-06
0.509838
5.5612e-06
0.509833
5.0668e-06
0.509828
4.88153e-06
0.509823
5.09658e-06
0.509817
5.44685e-06
0.509812
5.70728e-06
0.509806
5.70015e-06
0.509801
5.53772e-06
0.509795
5.4942e-06
0.50979
5.48325e-06
0.509784
5.34318e-06
0.509779
5.17713e-06
0.509774
5.10178e-06
0.509769
5.16227e-06
0.509764
5.29008e-06
0.509758
5.33613e-06
0.509753
5.34616e-06
0.509747
5.38316e-06
0.509742
5.38095e-06
0.509737
5.33038e-06
0.509731
5.33991e-06
0.509726
5.44233e-06
0.50972
5.46282e-06
0.509715
5.29181e-06
0.50971
5.07257e-06
0.509705
4.93075e-06
0.5097
4.90138e-06
0.509695
5.10135e-06
0.50969
5.54234e-06
0.509684
5.99762e-06
0.509677
6.21453e-06
0.509671
6.10595e-06
0.509666
5.76817e-06
0.50966
5.33346e-06
0.509655
4.89556e-06
0.509651
4.69387e-06
0.509646
4.92318e-06
0.50964
5.35125e-06
0.509635
5.64901e-06
0.509629
5.80073e-06
0.509623
5.84739e-06
0.509617
5.76224e-06
0.509612
5.583e-06
0.509606
5.42015e-06
0.509601
5.27e-06
0.509596
5.0439e-06
0.509591
4.81356e-06
0.509586
4.7437e-06
0.509581
4.92621e-06
0.509576
5.34347e-06
0.50957
5.8052e-06
0.509564
6.1166e-06
0.509558
6.17391e-06
0.509552
5.91572e-06
0.509547
5.50164e-06
0.509541
5.20848e-06
0.509536
5.12598e-06
0.509531
5.23593e-06
0.509526
5.49253e-06
0.50952
5.74559e-06
0.509514
5.84989e-06
0.509508
5.79813e-06
0.509502
5.68897e-06
0.509497
5.66005e-06
0.509491
5.7422e-06
0.509485
5.76459e-06
0.50948
5.60649e-06
0.509474
5.39955e-06
0.509469
5.296e-06
0.509464
5.26482e-06
0.509458
5.2772e-06
0.509453
5.39569e-06
0.509448
5.56325e-06
0.509442
5.62959e-06
0.509436
5.56997e-06
0.509431
5.42485e-06
0.509426
5.26349e-06
0.50942
5.24468e-06
0.509415
5.44583e-06
0.509409
5.76813e-06
0.509403
6.02992e-06
0.509397
6.08539e-06
0.509391
5.95656e-06
0.509385
5.74428e-06
0.50938
5.51573e-06
0.509374
5.36815e-06
0.509369
5.34561e-06
0.509364
5.35118e-06
0.509358
5.34509e-06
0.509353
5.37296e-06
0.509348
5.3853e-06
0.509342
5.3465e-06
0.509337
5.34712e-06
0.509332
5.39947e-06
0.509326
5.43104e-06
0.509321
5.44142e-06
0.509315
5.40921e-06
0.50931
5.29852e-06
0.509305
5.21421e-06
0.5093
5.26701e-06
0.509294
5.36673e-06
0.509289
5.3681e-06
0.509283
5.29412e-06
0.509278
5.23169e-06
0.509273
5.16456e-06
0.509268
5.05395e-06
0.509263
4.97869e-06
0.509258
5.05837e-06
0.509253
5.25565e-06
0.509247
5.42215e-06
0.509242
5.47253e-06
0.509236
5.38241e-06
0.509231
5.19263e-06
0.509226
5.06231e-06
0.509221
5.07961e-06
0.509216
5.12901e-06
0.509211
5.10241e-06
0.509206
5.0681e-06
0.509201
5.10731e-06
0.509196
5.13812e-06
0.509191
5.08169e-06
0.509185
5.06042e-06
0.50918
5.18781e-06
0.509175
5.32656e-06
0.50917
5.27728e-06
0.509165
5.06233e-06
0.50916
4.89071e-06
0.509155
4.93446e-06
0.50915
5.15203e-06
0.509144
5.3147e-06
0.509139
5.33041e-06
0.509134
5.34442e-06
0.509128
5.41289e-06
0.509123
5.46551e-06
0.509117
5.55254e-06
0.509112
5.61206e-06
0.509106
6.05299e-06
5.50789e-06
0.510454
-5.86298e-08
0.510461
8.86036e-08
0.510467
1.2995e-06
0.51047
2.1877e-06
0.510473
1.92717e-06
0.510476
2.07303e-06
0.51048
2.52887e-06
0.510483
2.67671e-06
0.510485
2.37044e-06
0.510488
2.26442e-06
0.510491
2.21226e-06
0.510495
2.07068e-06
0.510498
2.24724e-06
0.510501
2.62734e-06
0.510504
2.69013e-06
0.510507
2.75898e-06
0.510509
3.10642e-06
0.510512
3.24127e-06
0.510514
3.16794e-06
0.510516
2.94385e-06
0.510519
2.54673e-06
0.510523
2.14386e-06
0.510527
1.61764e-06
0.510531
1.3539e-06
0.510535
1.60477e-06
0.510539
1.88614e-06
0.510542
2.18665e-06
0.510545
2.58257e-06
0.510547
2.79178e-06
0.510549
2.97566e-06
0.51055
3.15524e-06
0.510552
3.12175e-06
0.510554
3.03306e-06
0.510557
2.74645e-06
0.51056
2.31533e-06
0.510563
2.4162e-06
0.510566
2.92851e-06
0.510568
2.98427e-06
0.51057
2.71742e-06
0.510573
2.83405e-06
0.510576
3.1155e-06
0.510578
2.97034e-06
0.510581
2.4119e-06
0.510585
1.91038e-06
0.510589
1.98566e-06
0.510592
2.37788e-06
0.510595
2.46222e-06
0.510598
2.07343e-06
0.510603
1.63729e-06
0.510606
1.76902e-06
0.51061
2.30897e-06
0.510613
2.64644e-06
0.510616
2.70264e-06
0.510619
2.65059e-06
0.510622
2.54835e-06
0.510625
2.59353e-06
0.510628
2.72333e-06
0.510631
2.61756e-06
0.510634
2.47274e-06
0.510638
2.53223e-06
0.510641
2.40334e-06
0.510644
1.85783e-06
0.510648
1.47803e-06
0.510651
1.74764e-06
0.510655
2.29181e-06
0.510657
2.69698e-06
0.51066
2.88273e-06
0.510662
2.85817e-06
0.510664
2.6897e-06
0.510667
2.40371e-06
0.51067
2.33694e-06
0.510672
2.69334e-06
0.510674
3.02179e-06
0.510677
3.01953e-06
0.510679
2.75006e-06
0.510682
2.37216e-06
0.510685
2.19082e-06
0.510688
2.22572e-06
0.510691
2.37929e-06
0.510694
2.72265e-06
0.510697
2.96013e-06
0.510699
2.74657e-06
0.510703
2.36697e-06
0.510706
2.18896e-06
0.51071
2.2173e-06
0.510713
2.2526e-06
0.510716
2.27681e-06
0.510719
2.37779e-06
0.510721
2.3747e-06
0.510724
2.16402e-06
0.510727
2.06615e-06
0.510731
2.31325e-06
0.510734
2.64726e-06
0.510736
2.79028e-06
0.510739
2.85291e-06
0.510741
2.84266e-06
0.510744
2.56531e-06
0.510747
2.1959e-06
0.51075
2.08473e-06
0.510753
2.13101e-06
0.510757
2.14278e-06
0.51076
2.24815e-06
0.510763
2.49933e-06
0.510766
2.65473e-06
0.510768
2.62675e-06
0.510771
2.64495e-06
0.510773
2.77088e-06
0.510776
2.83146e-06
0.510779
2.77759e-06
0.510782
2.60911e-06
0.510785
2.37622e-06
0.510789
2.34258e-06
0.510792
2.5432e-06
0.510794
2.61986e-06
0.510797
2.49217e-06
0.510799
2.40376e-06
0.510802
2.45535e-06
0.510805
2.69732e-06
0.510808
2.90635e-06
0.510811
2.71756e-06
0.510814
2.32831e-06
0.510817
2.19098e-06
0.51082
2.38054e-06
0.510823
2.72823e-06
0.510825
2.9522e-06
0.510827
2.9245e-06
0.51083
2.78128e-06
0.510832
2.61329e-06
0.510835
2.49593e-06
0.510838
2.58075e-06
0.510841
2.79845e-06
0.510843
2.84242e-06
0.510846
2.62517e-06
0.510849
2.40614e-06
0.510852
2.34922e-06
0.510855
2.34997e-06
0.510858
2.35038e-06
0.51086
2.41776e-06
0.510863
2.513e-06
0.510865
2.54348e-06
0.510868
2.55999e-06
0.510871
2.65319e-06
0.510875
2.80142e-06
0.510878
2.87489e-06
0.510881
2.82665e-06
0.510884
2.74445e-06
0.510886
2.55961e-06
0.510889
2.17143e-06
0.510892
1.84823e-06
0.510895
1.85901e-06
0.510899
2.04694e-06
0.510902
2.22003e-06
0.510906
2.35842e-06
0.510909
2.43754e-06
0.510912
2.40929e-06
0.510915
2.35037e-06
0.510918
2.42358e-06
0.510921
2.59269e-06
0.510923
2.66613e-06
0.510925
2.57123e-06
0.510927
2.3923e-06
0.510931
2.28162e-06
0.510934
2.26018e-06
0.510938
2.27163e-06
0.510942
2.38209e-06
0.510945
2.5656e-06
0.510948
2.68195e-06
0.51095
2.73579e-06
0.510953
2.71822e-06
0.510955
2.53441e-06
0.510959
2.27811e-06
0.510962
2.1524e-06
0.510966
2.22469e-06
0.510969
2.44554e-06
0.510972
2.65097e-06
0.510975
2.6817e-06
0.510978
2.63483e-06
0.510981
2.6629e-06
0.510984
2.68072e-06
0.510987
2.59563e-06
0.51099
2.50713e-06
0.510993
2.46648e-06
0.510996
2.38415e-06
0.510999
2.3095e-06
0.511002
2.39254e-06
0.511005
2.58609e-06
0.511008
2.76632e-06
0.51101
2.88759e-06
0.511013
2.88996e-06
0.511015
2.76034e-06
0.511018
2.5678e-06
0.511021
2.41213e-06
0.511025
2.40869e-06
0.511029
2.53134e-06
0.511032
2.67085e-06
0.511035
2.79547e-06
0.511038
2.82183e-06
0.51104
2.68706e-06
0.511043
2.53263e-06
0.511046
2.44665e-06
0.511049
2.35553e-06
0.511052
2.29304e-06
0.511055
2.33033e-06
0.511058
2.40522e-06
0.511061
2.50146e-06
0.511064
2.63485e-06
0.511066
2.72249e-06
0.511069
2.75394e-06
0.511072
2.79141e-06
0.511074
2.75962e-06
0.511077
2.57695e-06
0.51108
2.37125e-06
0.511083
2.30176e-06
0.511086
2.32669e-06
0.511089
2.36161e-06
0.511092
2.45773e-06
0.511094
2.65219e-06
0.511096
2.81935e-06
0.511098
2.78893e-06
0.511101
2.57703e-06
0.511104
2.35104e-06
0.511107
2.22549e-06
0.51111
2.25143e-06
0.511113
2.39478e-06
0.511116
2.48634e-06
0.511119
2.44416e-06
0.511121
2.40451e-06
0.511124
2.47726e-06
0.511126
2.57217e-06
0.511129
2.56477e-06
0.511131
2.5245e-06
0.511134
2.58069e-06
0.511136
2.6488e-06
0.511139
2.60215e-06
0.511142
2.53999e-06
0.511144
2.59574e-06
0.511147
2.69166e-06
0.511149
2.65406e-06
0.511152
2.43877e-06
0.511155
2.19956e-06
0.511158
2.15141e-06
0.511161
2.30473e-06
0.511163
2.44443e-06
0.511166
2.48723e-06
0.511169
2.54643e-06
0.511172
2.62433e-06
0.511175
2.6328e-06
0.511178
2.59245e-06
0.511181
2.54771e-06
2.77057e-06
0.510454
-2.33308e-07
0.510453
1.213e-06
0.510452
2.36254e-06
0.510452
1.80862e-06
0.510452
1.861e-06
0.510452
1.68281e-06
0.510454
1.41882e-06
0.510454
2.19936e-06
0.510454
2.7352e-06
0.510453
2.63111e-06
0.510453
2.21956e-06
0.510453
2.12747e-06
0.510453
2.0247e-06
0.510454
1.83109e-06
0.510455
1.67837e-06
0.510456
1.54221e-06
0.510458
1.84993e-06
0.510459
2.34522e-06
0.510459
2.34223e-06
0.51046
2.43193e-06
0.51046
2.70904e-06
0.51046
2.41315e-06
0.510459
2.15249e-06
0.510458
2.33673e-06
0.510457
2.65228e-06
0.510456
3.0113e-06
0.510455
2.76131e-06
0.510456
2.1081e-06
0.510456
2.04309e-06
0.510457
2.33189e-06
0.510458
2.26988e-06
0.510459
1.86013e-06
0.510461
1.63395e-06
0.510461
2.05299e-06
0.510461
2.54139e-06
0.510461
2.21607e-06
0.510463
1.70056e-06
0.510464
1.73024e-06
0.510465
2.01153e-06
0.510465
2.14876e-06
0.510466
2.23972e-06
0.510467
2.23472e-06
0.510467
2.39535e-06
0.510466
2.69165e-06
0.510465
2.79836e-06
0.510465
2.56117e-06
0.510465
2.1042e-06
0.510466
1.98457e-06
0.510465
2.34384e-06
0.510464
2.465e-06
0.510464
2.08533e-06
0.510465
1.88312e-06
0.510466
2.04581e-06
0.510466
2.03679e-06
0.510467
1.96411e-06
0.510467
2.25788e-06
0.510467
2.60025e-06
0.510467
2.63723e-06
0.510467
2.57185e-06
0.510467
2.52033e-06
0.510467
2.47436e-06
0.510467
2.52608e-06
0.510466
2.55248e-06
0.510465
2.47774e-06
0.510465
2.35955e-06
0.510465
2.17258e-06
0.510466
1.8922e-06
0.510467
1.69289e-06
0.510468
1.88789e-06
0.510468
2.26335e-06
0.510468
2.34357e-06
0.510469
2.23e-06
0.51047
2.17973e-06
0.51047
2.19307e-06
0.510471
2.25822e-06
0.510471
2.35805e-06
0.510471
2.44975e-06
0.510471
2.3826e-06
0.510471
2.1166e-06
0.510472
1.98258e-06
0.510472
2.18981e-06
0.510473
2.40413e-06
0.510473
2.33745e-06
0.510473
2.21088e-06
0.510473
2.23598e-06
0.510473
2.25148e-06
0.510473
2.18603e-06
0.510473
2.19828e-06
0.510473
2.25686e-06
0.510473
2.19644e-06
0.510473
2.03754e-06
0.510473
1.9634e-06
0.510474
2.0061e-06
0.510475
2.03086e-06
0.510475
2.17711e-06
0.510476
2.50693e-06
0.510476
2.58753e-06
0.510476
2.23466e-06
0.510476
1.93735e-06
0.510476
2.01974e-06
0.510476
2.24215e-06
0.510476
2.33796e-06
0.510476
2.3048e-06
0.510476
2.24283e-06
0.510477
2.23504e-06
0.510477
2.3354e-06
0.510477
2.47172e-06
0.510478
2.5267e-06
0.510478
2.53644e-06
0.510478
2.5588e-06
0.510478
2.41967e-06
0.510478
2.06373e-06
0.510479
1.80497e-06
0.51048
1.79471e-06
0.51048
1.89737e-06
0.510481
2.01021e-06
0.510481
1.96884e-06
0.510482
1.86444e-06
0.510483
1.99826e-06
0.510484
2.23745e-06
0.510484
2.24535e-06
0.510484
2.03557e-06
0.510484
1.79229e-06
0.510485
1.72229e-06
0.510486
1.91237e-06
0.510487
2.23902e-06
0.510487
2.53091e-06
0.510487
2.68236e-06
0.510487
2.61799e-06
0.510487
2.44897e-06
0.510488
2.43876e-06
0.510488
2.55868e-06
0.510488
2.52e-06
0.510488
2.30594e-06
0.510488
2.14692e-06
0.510489
2.07131e-06
0.510489
2.02163e-06
0.510489
2.11703e-06
0.510489
2.41079e-06
0.510489
2.71956e-06
0.510489
2.89049e-06
0.510489
2.91337e-06
0.510489
2.83402e-06
0.510489
2.6791e-06
0.510489
2.45586e-06
0.51049
2.29382e-06
0.51049
2.27549e-06
0.51049
2.20767e-06
0.51049
2.04594e-06
0.510489
2.02792e-06
0.510489
2.16561e-06
0.510489
2.28352e-06
0.510489
2.36356e-06
0.510489
2.46199e-06
0.510489
2.49252e-06
0.510489
2.35254e-06
0.510489
2.17362e-06
0.51049
2.16106e-06
0.51049
2.31622e-06
0.51049
2.49746e-06
0.51049
2.57146e-06
0.51049
2.5197e-06
0.51049
2.38072e-06
0.51049
2.16777e-06
0.51049
1.99298e-06
0.510491
1.98181e-06
0.510491
2.06847e-06
0.510492
2.18419e-06
0.510492
2.38382e-06
0.510492
2.62907e-06
0.510492
2.76442e-06
0.510491
2.73421e-06
0.510491
2.57929e-06
0.510491
2.38229e-06
0.510491
2.22814e-06
0.510492
2.08128e-06
0.510493
1.92295e-06
0.510493
1.86782e-06
0.510494
1.94524e-06
0.510495
2.0482e-06
0.510495
2.1634e-06
0.510495
2.33376e-06
0.510495
2.41321e-06
0.510495
2.27973e-06
0.510495
2.12157e-06
0.510496
2.10177e-06
0.510496
2.1533e-06
0.510497
2.21675e-06
0.510498
2.24999e-06
0.510498
2.21844e-06
0.510499
2.16125e-06
0.510499
2.11446e-06
0.510499
2.09535e-06
0.5105
2.08244e-06
0.5105
2.04456e-06
0.510501
2.06545e-06
0.510502
2.17385e-06
0.510502
2.23042e-06
0.510503
2.21895e-06
0.510503
2.25144e-06
0.510503
2.29009e-06
0.510503
2.27526e-06
0.510503
2.25157e-06
0.510503
2.21045e-06
0.510503
2.16723e-06
0.510504
2.21259e-06
0.510504
2.30085e-06
0.510505
2.33067e-06
0.510505
2.3503e-06
0.510506
2.4156e-06
0.510506
2.45591e-06
0.510506
2.42202e-06
0.510506
2.37609e-06
0.510506
2.33478e-06
0.510506
2.22765e-06
0.510506
2.06677e-06
0.510507
1.97992e-06
0.510507
2.03079e-06
0.510508
2.11762e-06
0.510509
2.14651e-06
0.510509
2.12757e-06
0.510509
2.05122e-06
0.510509
1.94974e-06
0.51051
1.97116e-06
0.51051
2.12976e-06
0.51051
2.24911e-06
0.51051
2.25317e-06
0.510511
2.24093e-06
0.510511
2.28319e-06
0.510511
2.32602e-06
0.510511
2.32509e-06
0.510512
2.33989e-06
0.510512
2.38732e-06
0.510512
2.3654e-06
0.510512
2.25203e-06
0.510513
2.18803e-06
0.510513
2.27868e-06
0.510513
2.46721e-06
0.510513
2.60586e-06
0.510513
2.58152e-06
0.510513
2.45824e-06
0.510512
2.41592e-06
0.510512
2.46282e-06
0.510512
2.49057e-06
0.510512
2.51706e-06
0.510513
2.57652e-06
0.510513
2.60349e-06
0.510513
2.53706e-06
0.510513
2.48409e-06
2.51965e-06
0.510453
4.91168e-07
0.510453
8.06766e-07
0.510454
1.1824e-06
0.510454
1.88502e-06
0.510454
1.77227e-06
0.510455
1.5958e-06
0.510454
1.91149e-06
0.510455
1.32504e-06
0.510457
8.6815e-07
0.510458
1.10559e-06
0.510459
1.61395e-06
0.510459
2.06776e-06
0.510459
2.0999e-06
0.510459
2.0114e-06
0.510458
2.2151e-06
0.510457
2.20099e-06
0.510457
1.85736e-06
0.510458
1.63604e-06
0.510459
1.74749e-06
0.51046
1.62401e-06
0.510461
1.78299e-06
0.51046
2.58922e-06
0.51046
2.985e-06
0.510459
2.79837e-06
0.510459
2.26451e-06
0.510461
1.72697e-06
0.510462
1.75686e-06
0.510462
1.92609e-06
0.510462
1.81238e-06
0.510463
1.5079e-06
0.510464
1.33985e-06
0.510464
1.63903e-06
0.510464
2.01671e-06
0.510464
2.02759e-06
0.510464
2.09729e-06
0.510464
2.56085e-06
0.510463
2.79311e-06
0.510462
2.69702e-06
0.510461
2.49101e-06
0.510461
2.01243e-06
0.510462
1.65579e-06
0.510463
1.70649e-06
0.510463
1.96364e-06
0.510463
2.24821e-06
0.510464
2.3349e-06
0.510464
2.20843e-06
0.510464
1.9819e-06
0.510465
1.71205e-06
0.510465
1.67631e-06
0.510466
2.25628e-06
0.510465
2.79576e-06
0.510464
2.55798e-06
0.510464
1.91053e-06
0.510465
1.54586e-06
0.510465
1.38062e-06
0.510466
1.47649e-06
0.510467
1.87209e-06
0.510467
2.10068e-06
0.510468
1.95271e-06
0.510469
1.78028e-06
0.510469
1.76921e-06
0.51047
1.93691e-06
0.51047
2.16478e-06
0.510471
2.2971e-06
0.510471
2.30544e-06
0.510471
2.11137e-06
0.510471
1.67943e-06
0.510471
1.28896e-06
0.510472
1.32843e-06
0.510472
1.73812e-06
0.510473
2.11842e-06
0.510473
2.26827e-06
0.510473
2.14935e-06
0.510473
1.91929e-06
0.510473
1.78482e-06
0.510474
1.74753e-06
0.510475
1.90512e-06
0.510475
2.21063e-06
0.510475
2.29262e-06
0.510474
2.07083e-06
0.510475
1.85064e-06
0.510475
1.84136e-06
0.510476
1.95633e-06
0.510476
2.05913e-06
0.510476
2.16838e-06
0.510476
2.25235e-06
0.510476
2.21924e-06
0.510476
2.17356e-06
0.510476
2.21583e-06
0.510476
2.24241e-06
0.510476
2.16919e-06
0.510476
2.16683e-06
0.510475
2.35364e-06
0.510475
2.36099e-06
0.510475
1.98247e-06
0.510476
1.73564e-06
0.510477
1.91023e-06
0.510477
2.02458e-06
0.510477
1.8396e-06
0.510477
1.61826e-06
0.510478
1.57824e-06
0.510479
1.75343e-06
0.510479
2.10951e-06
0.510479
2.35966e-06
0.510479
2.29777e-06
0.510479
2.11496e-06
0.510479
2.08944e-06
0.51048
2.15837e-06
0.51048
2.17214e-06
0.51048
2.20243e-06
0.51048
2.27539e-06
0.51048
2.24553e-06
0.51048
2.10894e-06
0.51048
1.94953e-06
0.51048
1.841e-06
0.51048
1.90884e-06
0.51048
2.04878e-06
0.51048
2.02575e-06
0.51048
1.92982e-06
0.51048
1.92167e-06
0.51048
1.99458e-06
0.51048
2.11003e-06
0.51048
2.19136e-06
0.510479
2.15869e-06
0.510479
2.03936e-06
0.51048
1.92077e-06
0.51048
1.92186e-06
0.510481
2.09428e-06
0.510481
2.29235e-06
0.510481
2.29794e-06
0.510482
2.17302e-06
0.510482
2.11715e-06
0.510482
2.04493e-06
0.510483
1.85125e-06
0.510483
1.70348e-06
0.510484
1.7156e-06
0.510484
1.7924e-06
0.510484
1.8878e-06
0.510485
2.05375e-06
0.510485
2.2677e-06
0.510485
2.44486e-06
0.510486
2.53113e-06
0.510486
2.52169e-06
0.510486
2.43751e-06
0.510487
2.21771e-06
0.510487
1.90502e-06
0.510487
1.76577e-06
0.510488
1.7897e-06
0.510488
1.73449e-06
0.510489
1.68278e-06
0.510489
1.79293e-06
0.510489
1.95776e-06
0.51049
2.07657e-06
0.51049
2.18867e-06
0.51049
2.28011e-06
0.51049
2.24799e-06
0.51049
2.0668e-06
0.510491
1.85784e-06
0.510491
1.76872e-06
0.510492
1.81918e-06
0.510492
1.90183e-06
0.510493
1.98207e-06
0.510493
2.06844e-06
0.510493
2.04715e-06
0.510494
1.89568e-06
0.510494
1.76531e-06
0.510494
1.71172e-06
0.510495
1.69662e-06
0.510495
1.74508e-06
0.510496
1.86132e-06
0.510497
1.98499e-06
0.510497
2.09275e-06
0.510498
2.15917e-06
0.510498
2.14552e-06
0.510498
2.09569e-06
0.510498
2.0124e-06
0.510498
1.8465e-06
0.510498
1.7194e-06
0.510499
1.75529e-06
0.510499
1.84361e-06
0.510499
1.88687e-06
0.510499
2.02047e-06
0.5105
2.28138e-06
0.510499
2.4536e-06
0.510499
2.43325e-06
0.510499
2.31813e-06
0.510499
2.20402e-06
0.510499
2.17763e-06
0.510499
2.23718e-06
0.510499
2.27636e-06
0.510499
2.24228e-06
0.510499
2.14721e-06
0.510499
2.06864e-06
0.510499
2.06565e-06
0.510499
2.04721e-06
0.510499
1.97913e-06
0.510499
1.97212e-06
0.510499
1.98788e-06
0.5105
1.91472e-06
0.5105
1.83671e-06
0.5105
1.8222e-06
0.510501
1.83373e-06
0.510501
1.90021e-06
0.510502
1.97724e-06
0.510502
1.94555e-06
0.510502
1.87471e-06
0.510503
1.87298e-06
0.510503
1.88896e-06
0.510503
1.91048e-06
0.510504
1.99822e-06
0.510504
2.10338e-06
0.510504
2.13287e-06
0.510505
2.13162e-06
0.510505
2.18388e-06
0.510505
2.24063e-06
0.510505
2.1928e-06
0.510505
2.04284e-06
0.510505
1.92506e-06
0.510505
1.90655e-06
0.510505
1.92452e-06
0.510505
1.97448e-06
0.510505
2.05502e-06
0.510505
2.06454e-06
0.510505
2.00913e-06
0.510505
2.01227e-06
0.510505
2.07723e-06
0.510506
2.12974e-06
0.510506
2.16797e-06
0.510506
2.21994e-06
0.510506
2.24803e-06
0.510506
2.20213e-06
0.510506
2.14617e-06
0.510506
2.1753e-06
0.510506
2.22046e-06
0.510507
2.14818e-06
0.510507
1.98012e-06
0.510507
1.85335e-06
0.510508
1.85548e-06
0.510508
1.97103e-06
0.510509
2.09687e-06
0.510509
2.14028e-06
0.51051
2.12037e-06
0.51051
2.07705e-06
0.51051
2.00624e-06
0.510511
1.94512e-06
0.510512
1.9703e-06
0.510512
2.1119e-06
0.510512
2.27251e-06
0.510513
2.30254e-06
2.26135e-06
0.510453
-1.67404e-07
0.510454
3.14024e-08
0.510455
5.35855e-07
0.510456
8.7144e-07
0.510457
9.12728e-07
0.510457
1.20196e-06
0.510458
1.29617e-06
0.510457
1.52848e-06
0.510457
1.77299e-06
0.510456
1.62511e-06
0.510456
1.60823e-06
0.510456
1.75181e-06
0.510456
2.01607e-06
0.510456
2.08708e-06
0.510457
1.85477e-06
0.510457
1.95224e-06
0.510457
2.21298e-06
0.510456
2.066e-06
0.510456
1.91921e-06
0.510456
1.87763e-06
0.510456
1.51298e-06
0.510457
1.39788e-06
0.510459
1.53547e-06
0.51046
1.53052e-06
0.510461
1.51555e-06
0.510461
1.65672e-06
0.510461
1.97289e-06
0.51046
2.20517e-06
0.51046
2.27497e-06
0.510459
2.29247e-06
0.510458
2.41099e-06
0.510457
2.33738e-06
0.510457
1.98285e-06
0.510457
1.95637e-06
0.510458
1.8945e-06
0.510459
1.45003e-06
0.51046
1.44188e-06
0.510461
2.03223e-06
0.510461
2.35223e-06
0.510461
1.94808e-06
0.510461
1.3008e-06
0.510462
1.28346e-06
0.510462
1.8376e-06
0.510462
2.00972e-06
0.510463
1.56441e-06
0.510464
1.16071e-06
0.510465
1.21271e-06
0.510465
1.61319e-06
0.510464
1.95979e-06
0.510465
1.98433e-06
0.510466
1.81534e-06
0.510467
1.64618e-06
0.510467
1.52101e-06
0.510467
1.50561e-06
0.510467
1.60861e-06
0.510467
1.69167e-06
0.510467
1.81726e-06
0.510467
1.82521e-06
0.510467
1.51446e-06
0.510468
1.20956e-06
0.510469
1.16455e-06
0.510469
1.37043e-06
0.510469
1.74342e-06
0.51047
1.95069e-06
0.51047
1.85456e-06
0.510471
1.82515e-06
0.51047
1.92498e-06
0.51047
1.79824e-06
0.51047
1.64707e-06
0.510469
1.83551e-06
0.510469
2.09543e-06
0.510469
2.21101e-06
0.510469
2.22245e-06
0.510469
2.14713e-06
0.510469
2.07291e-06
0.510469
1.92073e-06
0.510469
1.68513e-06
0.51047
1.62207e-06
0.51047
1.69687e-06
0.51047
1.70846e-06
0.510471
1.71111e-06
0.510471
1.76017e-06
0.510471
1.7236e-06
0.510471
1.55908e-06
0.510472
1.47189e-06
0.510473
1.53947e-06
0.510474
1.53554e-06
0.510474
1.36539e-06
0.510475
1.26266e-06
0.510476
1.42112e-06
0.510477
1.65547e-06
0.510477
1.78603e-06
0.510477
2.00561e-06
0.510477
2.30532e-06
0.510477
2.28521e-06
0.510477
1.89729e-06
0.510477
1.53768e-06
0.510478
1.3731e-06
0.510478
1.34672e-06
0.510479
1.49438e-06
0.510479
1.67214e-06
0.510479
1.61513e-06
0.510479
1.46491e-06
0.51048
1.51391e-06
0.510481
1.69326e-06
0.510481
1.83487e-06
0.510481
1.9073e-06
0.510481
1.92573e-06
0.510482
1.87811e-06
0.510482
1.82036e-06
0.510483
1.77638e-06
0.510483
1.67192e-06
0.510484
1.55902e-06
0.510484
1.56222e-06
0.510484
1.6781e-06
0.510484
1.87136e-06
0.510484
2.04579e-06
0.510484
2.03886e-06
0.510484
1.87804e-06
0.510485
1.74287e-06
0.510485
1.7244e-06
0.510485
1.77878e-06
0.510485
1.84504e-06
0.510486
1.94716e-06
0.510486
2.06507e-06
0.510485
2.10925e-06
0.510485
2.05284e-06
0.510485
1.99304e-06
0.510486
2.01873e-06
0.510486
2.02318e-06
0.510486
1.9013e-06
0.510487
1.80267e-06
0.510487
1.80325e-06
0.510487
1.73973e-06
0.510487
1.59913e-06
0.510487
1.55794e-06
0.510487
1.64032e-06
0.510487
1.74927e-06
0.510488
1.91642e-06
0.510488
2.16124e-06
0.510488
2.34387e-06
0.510488
2.36885e-06
0.510488
2.27331e-06
0.510489
2.14486e-06
0.510489
1.96964e-06
0.510489
1.65637e-06
0.510489
1.36485e-06
0.51049
1.33217e-06
0.51049
1.45312e-06
0.51049
1.5711e-06
0.51049
1.73563e-06
0.51049
1.91032e-06
0.510491
1.92264e-06
0.510491
1.77613e-06
0.510492
1.65332e-06
0.510492
1.62366e-06
0.510493
1.62649e-06
0.510493
1.6215e-06
0.510493
1.6307e-06
0.510493
1.68348e-06
0.510493
1.70121e-06
0.510494
1.62928e-06
0.510494
1.58312e-06
0.510495
1.61835e-06
0.510495
1.66672e-06
0.510495
1.73084e-06
0.510495
1.80967e-06
0.510495
1.81749e-06
0.510495
1.77562e-06
0.510495
1.80237e-06
0.510495
1.89124e-06
0.510495
1.96873e-06
0.510495
1.97813e-06
0.510495
1.8706e-06
0.510496
1.75408e-06
0.510496
1.75394e-06
0.510496
1.77576e-06
0.510496
1.73196e-06
0.510496
1.72915e-06
0.510496
1.80367e-06
0.510496
1.80994e-06
0.510496
1.74233e-06
0.510497
1.76221e-06
0.510498
1.87674e-06
0.510498
1.98961e-06
0.510498
2.06843e-06
0.510498
2.05413e-06
0.510499
1.9295e-06
0.510499
1.80025e-06
0.5105
1.76036e-06
0.5105
1.81498e-06
0.5105
1.87235e-06
0.5105
1.88377e-06
0.510501
1.92171e-06
0.510501
1.97192e-06
0.510501
1.95062e-06
0.510501
1.92296e-06
0.510501
1.93953e-06
0.510501
1.90609e-06
0.510501
1.82952e-06
0.510501
1.78714e-06
0.510501
1.74493e-06
0.510501
1.72765e-06
0.510501
1.80053e-06
0.510501
1.88677e-06
0.510501
1.94237e-06
0.510501
2.01805e-06
0.510501
2.05335e-06
0.510501
1.96592e-06
0.510501
1.84524e-06
0.510501
1.80067e-06
0.510502
1.77755e-06
0.510502
1.70716e-06
0.510503
1.64858e-06
0.510503
1.67215e-06
0.510504
1.73687e-06
0.510504
1.7398e-06
0.510504
1.67846e-06
0.510505
1.62377e-06
0.510505
1.56593e-06
0.510505
1.51202e-06
0.510506
1.52616e-06
0.510506
1.56609e-06
0.510507
1.56386e-06
0.510507
1.57551e-06
0.510508
1.64172e-06
0.510508
1.69563e-06
0.510509
1.70086e-06
0.510509
1.73621e-06
0.51051
1.84611e-06
0.51051
1.92225e-06
0.51051
1.88227e-06
0.51051
1.82995e-06
0.510511
1.87345e-06
0.510511
1.96487e-06
0.510511
2.00033e-06
0.510511
1.94666e-06
0.510511
1.87703e-06
0.510511
1.86707e-06
0.510511
1.87318e-06
0.510511
1.84024e-06
0.510512
1.81621e-06
0.510512
1.85902e-06
0.510512
1.92384e-06
0.510512
1.93876e-06
0.510512
1.89136e-06
0.510512
1.83182e-06
0.510513
1.83559e-06
0.510513
1.87855e-06
1.90575e-06
0.510454
2.12194e-07
0.510454
4.68922e-07
0.510453
1.1556e-06
0.510452
1.63234e-06
0.510452
1.35877e-06
0.510452
1.09042e-06
0.510452
9.66489e-07
0.510453
1.12755e-06
0.510453
8.91751e-07
0.510454
7.17241e-07
0.510455
1.33021e-06
0.510455
1.60488e-06
0.510455
1.27187e-06
0.510456
1.23512e-06
0.510457
1.58276e-06
0.510457
1.61623e-06
0.510458
1.27324e-06
0.510459
1.10536e-06
0.51046
1.26337e-06
0.51046
1.74705e-06
0.510459
2.05136e-06
0.510459
1.90722e-06
0.510459
1.58843e-06
0.510459
1.55799e-06
0.510458
1.96167e-06
0.510458
2.17192e-06
0.510458
1.80408e-06
0.510459
1.14703e-06
0.51046
9.44401e-07
0.510461
1.20931e-06
0.510462
1.67567e-06
0.510462
2.08461e-06
0.510463
1.59614e-06
0.510464
6.76284e-07
0.510465
7.92225e-07
0.510465
1.73629e-06
0.510464
2.0513e-06
0.510465
1.50424e-06
0.510466
1.0075e-06
0.510467
1.14912e-06
0.510466
1.77117e-06
0.510465
2.13089e-06
0.510465
1.93906e-06
0.510466
1.74844e-06
0.510465
1.6908e-06
0.510465
1.55645e-06
0.510465
1.58161e-06
0.510464
1.79429e-06
0.510465
1.81558e-06
0.510465
1.67747e-06
0.510465
1.60295e-06
0.510465
1.44205e-06
0.510466
1.18808e-06
0.510466
1.20409e-06
0.510466
1.57271e-06
0.510466
1.72369e-06
0.510466
1.56535e-06
0.510467
1.56937e-06
0.510466
1.59278e-06
0.510466
1.48788e-06
0.510466
1.61114e-06
0.510465
1.92686e-06
0.510465
2.01763e-06
0.510465
1.78939e-06
0.510466
1.33683e-06
0.510466
9.21506e-07
0.510468
8.67782e-07
0.510468
1.0283e-06
0.510469
1.0986e-06
0.51047
1.13122e-06
0.51047
1.23787e-06
0.510471
1.43841e-06
0.510472
1.56487e-06
0.510472
1.49398e-06
0.510473
1.47969e-06
0.510473
1.54895e-06
0.510474
1.46559e-06
0.510474
1.33846e-06
0.510474
1.34326e-06
0.510475
1.39465e-06
0.510475
1.44732e-06
0.510475
1.67374e-06
0.510475
2.02603e-06
0.510474
2.08198e-06
0.510474
1.77054e-06
0.510474
1.48223e-06
0.510474
1.40285e-06
0.510474
1.41023e-06
0.510474
1.41718e-06
0.510474
1.53338e-06
0.510474
1.80657e-06
0.510473
1.95215e-06
0.510474
1.88322e-06
0.510474
1.7821e-06
0.510475
1.58968e-06
0.510475
1.32979e-06
0.510476
1.31615e-06
0.510475
1.4812e-06
0.510475
1.45143e-06
0.510476
1.30701e-06
0.510476
1.41991e-06
0.510476
1.72631e-06
0.510475
1.89874e-06
0.510475
1.86133e-06
0.510475
1.71045e-06
0.510475
1.55801e-06
0.510475
1.55067e-06
0.510476
1.64342e-06
0.510476
1.61246e-06
0.510476
1.48421e-06
0.510477
1.4552e-06
0.510477
1.44185e-06
0.510477
1.33341e-06
0.510478
1.19066e-06
0.510478
1.09066e-06
0.510479
1.18081e-06
0.510479
1.48778e-06
0.51048
1.72495e-06
0.51048
1.69011e-06
0.51048
1.45676e-06
0.510481
1.23006e-06
0.510481
1.17199e-06
0.510482
1.26509e-06
0.510482
1.45095e-06
0.510483
1.67202e-06
0.510483
1.8017e-06
0.510483
1.78282e-06
0.510484
1.6877e-06
0.510484
1.70156e-06
0.510484
1.84504e-06
0.510484
1.88015e-06
0.510484
1.74282e-06
0.510484
1.58298e-06
0.510485
1.41799e-06
0.510485
1.24401e-06
0.510485
1.2235e-06
0.510486
1.43612e-06
0.510486
1.71375e-06
0.510486
1.9146e-06
0.510486
2.09041e-06
0.510486
2.26116e-06
0.510486
2.29617e-06
0.510486
2.11422e-06
0.510486
1.84218e-06
0.510487
1.63405e-06
0.510487
1.42991e-06
0.510487
1.20175e-06
0.510487
1.14646e-06
0.510487
1.2998e-06
0.510488
1.45139e-06
0.510488