/*--------------------------------*- C++ -*----------------------------------*\
| =========                 |                                                 |
| \\      /  F ield         | OpenFOAM: The Open Source CFD Toolbox           |
|  \\    /   O peration     | Version:  2406                                  |
|   \\  /    A nd           | Website:  www.openfoam.com                      |
|    \\/     M anipulation  |                                                 |
\*---------------------------------------------------------------------------*/
FoamFile
{
    version     2.0;
    format      ascii;
    arch        "LSB;label=32;scalar=64";
    class       volVectorField;
    location    "1.3";
    object      U;
}
// * * * * * * * * * * * * * * * * * * * * * * * * * * * * * * * * * * * * * //

dimensions      [0 1 -1 0 0 0 0];

internalField   nonuniform List<vector> 
6250
(
(50.504 0.000113537 0)
(85.361 0.000555449 0)
(73.187 0.00081362 0)
(60.5554 0.000789339 0)
(59.8171 0.000707608 0)
(63.2742 0.000732674 0)
(64.7809 0.000782936 0)
(64.3292 0.000790035 0)
(63.7126 0.00082549 0)
(63.6103 0.000869507 0)
(63.7529 0.000924668 0)
(63.837 0.000942558 0)
(63.8263 0.000896 0)
(63.7968 0.000815866 0)
(63.7881 0.000778823 0)
(63.7928 0.000823073 0)
(63.7965 0.000864666 0)
(63.7959 0.000865703 0)
(63.7939 0.000834996 0)
(63.7928 0.000827654 0)
(63.7922 0.000874223 0)
(63.7918 0.000936655 0)
(63.7912 0.000995012 0)
(63.7904 0.00101996 0)
(63.7896 0.000997346 0)
(63.7889 0.000953295 0)
(63.7882 0.000910034 0)
(63.7876 0.000873355 0)
(63.7869 0.000830299 0)
(63.7863 0.00078429 0)
(63.7858 0.000766192 0)
(63.7852 0.00078628 0)
(63.7845 0.000823646 0)
(63.7839 0.000850924 0)
(63.7832 0.000867458 0)
(63.7825 0.000869692 0)
(63.7818 0.000828378 0)
(63.7811 0.00076453 0)
(63.7805 0.000749395 0)
(63.7799 0.000792821 0)
(63.7791 0.000847216 0)
(63.7784 0.00089116 0)
(63.7777 0.00093954 0)
(63.777 0.000996695 0)
(63.7763 0.0010263 0)
(63.7756 0.00100295 0)
(63.7749 0.000960259 0)
(63.7742 0.000946896 0)
(63.7735 0.000969195 0)
(63.7728 0.000987537 0)
(63.7721 0.000975825 0)
(63.7714 0.000949055 0)
(63.7707 0.000917224 0)
(63.7699 0.000882465 0)
(63.7693 0.000872393 0)
(63.7686 0.000902039 0)
(63.7678 0.000942155 0)
(63.7671 0.00098339 0)
(63.7664 0.00103705 0)
(63.7657 0.00106892 0)
(63.765 0.00104969 0)
(63.7644 0.00101562 0)
(63.7637 0.00100542 0)
(63.763 0.00100209 0)
(63.7623 0.000980804 0)
(63.7617 0.00094947 0)
(63.761 0.00091536 0)
(63.7603 0.000882982 0)
(63.7597 0.000865698 0)
(63.7591 0.000877408 0)
(63.7585 0.00092086 0)
(63.7578 0.000955406 0)
(63.7571 0.00093913 0)
(63.7565 0.000889608 0)
(63.7558 0.000852986 0)
(63.7552 0.000864214 0)
(63.7546 0.000914206 0)
(63.7539 0.000957562 0)
(63.7532 0.000974129 0)
(63.7525 0.000960035 0)
(63.7518 0.000914125 0)
(63.7511 0.000877799 0)
(63.7505 0.000895406 0)
(63.7497 0.000949637 0)
(63.749 0.000989633 0)
(63.7483 0.000987452 0)
(63.7476 0.000951949 0)
(63.747 0.000897521 0)
(63.7464 0.000842861 0)
(63.7458 0.000828196 0)
(63.7451 0.000869974 0)
(63.7444 0.000927421 0)
(63.7437 0.000952972 0)
(63.743 0.000948059 0)
(63.7423 0.000938055 0)
(63.7416 0.00092481 0)
(63.741 0.00090696 0)
(63.7403 0.000901415 0)
(63.7397 0.000915117 0)
(63.739 0.000940359 0)
(63.7383 0.000975112 0)
(63.7376 0.0010078 0)
(63.7369 0.00100423 0)
(63.7362 0.000952576 0)
(63.7356 0.0008916 0)
(63.735 0.000858913 0)
(63.7343 0.000851781 0)
(63.7336 0.000862489 0)
(63.733 0.000897183 0)
(63.7323 0.000945883 0)
(63.7316 0.000980446 0)
(63.7308 0.000976683 0)
(63.7301 0.000924804 0)
(63.7294 0.000854212 0)
(63.7288 0.000821419 0)
(63.7282 0.000842715 0)
(63.7275 0.000886202 0)
(63.7268 0.000918881 0)
(63.7261 0.000925186 0)
(63.7254 0.000921656 0)
(63.7247 0.000936584 0)
(63.724 0.000955745 0)
(63.7233 0.000942026 0)
(63.7227 0.000892164 0)
(63.7221 0.000841613 0)
(63.7214 0.000834259 0)
(63.7208 0.000878221 0)
(63.7201 0.000938342 0)
(63.7194 0.000979356 0)
(63.7188 0.000989032 0)
(63.7181 0.000970378 0)
(63.7174 0.000943056 0)
(63.7168 0.000938979 0)
(63.7161 0.000967573 0)
(63.7154 0.000998305 0)
(63.7147 0.00100025 0)
(63.7141 0.000976942 0)
(63.7135 0.000947715 0)
(63.7128 0.000927804 0)
(63.7122 0.000932343 0)
(63.7116 0.000968145 0)
(63.7108 0.00101901 0)
(63.7101 0.00105543 0)
(63.7093 0.00105624 0)
(63.7085 0.00102233 0)
(63.7079 0.000968545 0)
(63.7072 0.000911025 0)
(63.7066 0.000880619 0)
(63.706 0.000906914 0)
(63.7054 0.000972165 0)
(63.7047 0.00103196 0)
(63.704 0.00106608 0)
(63.7033 0.00107595 0)
(63.7025 0.00106145 0)
(63.7018 0.00102646 0)
(63.7011 0.000987484 0)
(63.7005 0.000954422 0)
(63.6998 0.000921973 0)
(63.6992 0.000892098 0)
(63.6986 0.00088004 0)
(63.698 0.000899388 0)
(63.6974 0.000947831 0)
(63.6967 0.00100636 0)
(63.6959 0.00105803 0)
(63.6951 0.00108901 0)
(63.6944 0.00108211 0)
(63.6937 0.00104107 0)
(63.693 0.00099612 0)
(63.6924 0.000974914 0)
(63.6917 0.000990441 0)
(63.6911 0.00103815 0)
(63.6903 0.00108856 0)
(63.6896 0.00110548 0)
(63.6889 0.00107771 0)
(63.6882 0.00102567 0)
(63.6875 0.000985991 0)
(63.6868 0.000981843 0)
(63.686 0.000998084 0)
(63.6853 0.00100342 0)
(63.6846 0.000992216 0)
(63.684 0.000978411 0)
(63.6833 0.000965716 0)
(63.6826 0.000954074 0)
(63.682 0.000951946 0)
(63.6813 0.000957756 0)
(63.6806 0.00095811 0)
(63.6799 0.000949743 0)
(63.6792 0.000936216 0)
(63.6785 0.000919363 0)
(63.6779 0.000908521 0)
(63.6772 0.000918526 0)
(63.6765 0.000954479 0)
(63.6758 0.00100174 0)
(63.675 0.00103478 0)
(63.6743 0.00104146 0)
(63.6735 0.00102725 0)
(63.6728 0.00100217 0)
(63.6721 0.000981874 0)
(63.6715 0.000979869 0)
(63.6708 0.000989891 0)
(63.6701 0.000997941 0)
(63.6695 0.000999479 0)
(63.6688 0.000990666 0)
(63.6681 0.000969635 0)
(63.6675 0.000947973 0)
(63.6668 0.000938028 0)
(63.6661 0.000941183 0)
(63.6654 0.000953112 0)
(63.6648 0.000964279 0)
(63.6641 0.000966415 0)
(63.6634 0.000965877 0)
(63.6628 0.000972719 0)
(63.6621 0.000979433 0)
(63.6614 0.000971263 0)
(63.6608 0.000949934 0)
(63.6601 0.000927651 0)
(63.6595 0.000907212 0)
(63.6588 0.00088512 0)
(63.6582 0.000869812 0)
(63.6576 0.000880387 0)
(63.6569 0.000919474 0)
(63.6563 0.000962712 0)
(63.6556 0.000982436 0)
(63.6549 0.000969132 0)
(63.6542 0.00093665 0)
(63.6536 0.000911764 0)
(63.653 0.000907261 0)
(63.6523 0.000909911 0)
(63.6517 0.000903546 0)
(63.651 0.000892192 0)
(63.6504 0.000888427 0)
(63.6498 0.000888737 0)
(63.6491 0.00088213 0)
(63.6485 0.000877585 0)
(63.6479 0.000894433 0)
(63.6472 0.000929033 0)
(63.6465 0.000959028 0)
(63.6459 0.000974924 0)
(63.6453 0.000984345 0)
(63.6447 0.000994218 0)
(63.644 0.00100148 0)
(63.6434 0.000997057 0)
(63.6427 0.000984646 0)
(63.642 0.000983217 0)
(63.6414 0.000997211 0)
(63.6407 0.00101101 0)
(63.64 0.00102168 0)
(63.6393 0.0010238 0)
(63.6387 0.00105439 0)
(63.6376 0.0010306 0)
(50.5038 9.59879e-05 0)
(85.3622 0.000406859 0)
(73.1903 0.000605761 0)
(60.56 0.000598053 0)
(59.8228 0.000537273 0)
(63.2807 0.000572007 0)
(64.7887 0.000607988 0)
(64.3379 0.000565574 0)
(63.7224 0.000478546 0)
(63.6213 0.000412091 0)
(63.7647 0.000414274 0)
(63.8499 0.000445551 0)
(63.8405 0.000476663 0)
(63.8121 0.000501774 0)
(63.8042 0.000530977 0)
(63.81 0.00058714 0)
(63.8149 0.000616383 0)
(63.8153 0.000588412 0)
(63.8143 0.000536631 0)
(63.8141 0.000502575 0)
(63.8145 0.00048328 0)
(63.8151 0.000451049 0)
(63.8156 0.00042164 0)
(63.8161 0.000406668 0)
(63.8166 0.00038979 0)
(63.8172 0.000367716 0)
(63.8176 0.000367876 0)
(63.818 0.000403694 0)
(63.8183 0.000429421 0)
(63.8185 0.000427955 0)
(63.8187 0.000436635 0)
(63.8189 0.000463875 0)
(63.8191 0.000496153 0)
(63.8194 0.000496106 0)
(63.8198 0.000468652 0)
(63.8202 0.000478063 0)
(63.8206 0.000525162 0)
(63.8208 0.000547845 0)
(63.8211 0.000546698 0)
(63.8215 0.000557271 0)
(63.8218 0.000557167 0)
(63.8221 0.000510637 0)
(63.8225 0.000435701 0)
(63.8229 0.000386268 0)
(63.8234 0.000387656 0)
(63.8238 0.0004128 0)
(63.8242 0.000428189 0)
(63.8246 0.000415135 0)
(63.8251 0.000389393 0)
(63.8256 0.000395849 0)
(63.826 0.00044872 0)
(63.8264 0.000511695 0)
(63.8268 0.000533962 0)
(63.8272 0.000507583 0)
(63.8275 0.000480787 0)
(63.8279 0.000483109 0)
(63.8283 0.000475891 0)
(63.8287 0.000442872 0)
(63.8291 0.000425301 0)
(63.8295 0.000415835 0)
(63.8299 0.000369802 0)
(63.8302 0.000301954 0)
(63.8307 0.000273269 0)
(63.8312 0.000307059 0)
(63.8316 0.000368799 0)
(63.832 0.00042159 0)
(63.8323 0.000442473 0)
(63.8326 0.000428351 0)
(63.8329 0.000390722 0)
(63.8332 0.000346157 0)
(63.8335 0.000343042 0)
(63.8339 0.000390344 0)
(63.8341 0.000428135 0)
(63.8344 0.000425746 0)
(63.8347 0.000393838 0)
(63.835 0.000364595 0)
(63.8354 0.000366633 0)
(63.8358 0.000386965 0)
(63.8362 0.000422668 0)
(63.8366 0.000473876 0)
(63.837 0.000493172 0)
(63.8372 0.000465726 0)
(63.8376 0.000438606 0)
(63.838 0.000436064 0)
(63.8385 0.000438315 0)
(63.8389 0.000425325 0)
(63.8393 0.000407359 0)
(63.8397 0.000397133 0)
(63.84 0.00038633 0)
(63.8403 0.000385714 0)
(63.8407 0.000419441 0)
(63.8411 0.000470369 0)
(63.8416 0.000492338 0)
(63.8419 0.000476398 0)
(63.8422 0.000452166 0)
(63.8425 0.00042284 0)
(63.8428 0.0003782 0)
(63.8432 0.000349262 0)
(63.8436 0.000358502 0)
(63.844 0.000376347 0)
(63.8444 0.000382929 0)
(63.8448 0.000393078 0)
(63.8452 0.000407547 0)
(63.8456 0.000412945 0)
(63.8459 0.000419822 0)
(63.8462 0.000442584 0)
(63.8465 0.000463174 0)
(63.8468 0.000462922 0)
(63.8471 0.000455557 0)
(63.8475 0.000454636 0)
(63.8479 0.000458751 0)
(63.8484 0.000470015 0)
(63.8488 0.000473156 0)
(63.8491 0.000449314 0)
(63.8494 0.000424079 0)
(63.8497 0.000427502 0)
(63.8501 0.000455492 0)
(63.8505 0.000494582 0)
(63.8509 0.000511798 0)
(63.8512 0.000480823 0)
(63.8515 0.000433617 0)
(63.852 0.00040892 0)
(63.8524 0.000410035 0)
(63.8527 0.000426038 0)
(63.853 0.000438366 0)
(63.8532 0.000437751 0)
(63.8536 0.000426467 0)
(63.8539 0.000402298 0)
(63.8542 0.00037588 0)
(63.8546 0.000369594 0)
(63.8549 0.000380545 0)
(63.8552 0.000382223 0)
(63.8555 0.000369441 0)
(63.8559 0.000360915 0)
(63.8563 0.000354992 0)
(63.8567 0.000336547 0)
(63.857 0.000316046 0)
(63.8574 0.000311805 0)
(63.8577 0.000322255 0)
(63.858 0.000342818 0)
(63.8583 0.000377653 0)
(63.8587 0.000423207 0)
(63.8592 0.000460938 0)
(63.8596 0.000469837 0)
(63.86 0.00044679 0)
(63.8603 0.000405986 0)
(63.8606 0.000351868 0)
(63.8609 0.000297912 0)
(63.8612 0.00028496 0)
(63.8617 0.00031858 0)
(63.8621 0.000357234 0)
(63.8626 0.000378587 0)
(63.863 0.000389162 0)
(63.8634 0.000390302 0)
(63.8638 0.000378217 0)
(63.8642 0.00036506 0)
(63.8646 0.000364797 0)
(63.8649 0.000365835 0)
(63.8652 0.000352943 0)
(63.8655 0.000331903 0)
(63.8658 0.0003227 0)
(63.8661 0.000340274 0)
(63.8665 0.000372744 0)
(63.867 0.000400779 0)
(63.8675 0.000418704 0)
(63.868 0.00041539 0)
(63.8683 0.000387694 0)
(63.8686 0.000356494 0)
(63.8689 0.000333235 0)
(63.8692 0.000313927 0)
(63.8696 0.00030383 0)
(63.8701 0.000310478 0)
(63.8705 0.000331585 0)
(63.871 0.000362525 0)
(63.8714 0.000394579 0)
(63.8717 0.000418755 0)
(63.8721 0.000437613 0)
(63.8725 0.000447388 0)
(63.8729 0.000432079 0)
(63.8732 0.000397449 0)
(63.8736 0.000371829 0)
(63.8739 0.000364282 0)
(63.8743 0.000365002 0)
(63.8746 0.000378767 0)
(63.8751 0.000408716 0)
(63.8754 0.000434631 0)
(63.8758 0.000443589 0)
(63.8761 0.000440295 0)
(63.8764 0.000429607 0)
(63.8767 0.000420452 0)
(63.8771 0.000421702 0)
(63.8775 0.000434452 0)
(63.8779 0.000452479 0)
(63.8784 0.000460148 0)
(63.8788 0.000451308 0)
(63.8792 0.000435405 0)
(63.8795 0.000413177 0)
(63.8798 0.000385471 0)
(63.8802 0.000366724 0)
(63.8806 0.000358398 0)
(63.8809 0.000349615 0)
(63.8813 0.000345456 0)
(63.8817 0.000352215 0)
(63.8821 0.000363335 0)
(63.8824 0.000378721 0)
(63.8828 0.000397551 0)
(63.8831 0.000407953 0)
(63.8835 0.000407775 0)
(63.8838 0.000402207 0)
(63.8841 0.000387536 0)
(63.8844 0.000366016 0)
(63.8848 0.000353326 0)
(63.8852 0.000353674 0)
(63.8855 0.000354345 0)
(63.8859 0.000353727 0)
(63.8863 0.000365436 0)
(63.8866 0.000390211 0)
(63.8869 0.000407458 0)
(63.8872 0.000401534 0)
(63.8874 0.00038422 0)
(63.8878 0.000375674 0)
(63.8882 0.000377888 0)
(63.8886 0.000383791 0)
(63.889 0.0003859 0)
(63.8893 0.000376407 0)
(63.8896 0.000361785 0)
(63.89 0.000358141 0)
(63.8903 0.000366446 0)
(63.8906 0.000373599 0)
(63.891 0.000375383 0)
(63.8913 0.000382139 0)
(63.8916 0.000395288 0)
(63.8919 0.000398492 0)
(63.8922 0.000388135 0)
(63.8925 0.000381982 0)
(63.8929 0.000382369 0)
(63.8932 0.000366672 0)
(63.8935 0.000323969 0)
(63.8938 0.000273801 0)
(63.8941 0.000247633 0)
(63.8945 0.000260892 0)
(63.8949 0.000295478 0)
(63.8952 0.000321672 0)
(63.8956 0.000335596 0)
(63.896 0.000347268 0)
(63.8963 0.000354557 0)
(63.8967 0.000359192 0)
(63.8971 0.000362776 0)
(63.8974 0.000396882 0)
(63.898 0.000390224 0)
(50.5041 -1.52444e-05 0)
(85.3621 7.75546e-06 0)
(73.1886 5.89018e-05 0)
(60.5579 4.07264e-05 0)
(59.8203 1.91418e-05 0)
(63.2778 6.6377e-06 0)
(64.7855 3.75199e-05 0)
(64.3345 0.000139164 0)
(63.7187 0.000199823 0)
(63.617 0.000212544 0)
(63.7601 0.000168069 0)
(63.845 0.000133324 0)
(63.835 0.000128777 0)
(63.8063 0.000147583 0)
(63.7983 0.00013956 0)
(63.8038 0.000118071 0)
(63.8085 0.000151082 0)
(63.8087 0.000207086 0)
(63.8075 0.000227797 0)
(63.8071 0.000213017 0)
(63.8073 0.000170016 0)
(63.8075 8.19568e-05 0)
(63.8075 -5.02337e-06 0)
(63.8073 -3.57453e-06 0)
(63.8072 8.93468e-05 0)
(63.8071 0.000198019 0)
(63.8069 0.000241132 0)
(63.8069 0.000226306 0)
(63.8071 0.000238988 0)
(63.8071 0.000298357 0)
(63.8072 0.000332819 0)
(63.8073 0.000291289 0)
(63.8075 0.000228919 0)
(63.8077 0.000203291 0)
(63.8077 0.000194957 0)
(63.8076 0.00016951 0)
(63.8077 0.000144053 0)
(63.808 0.000150805 0)
(63.808 0.0001716 0)
(63.8081 0.000203867 0)
(63.8082 0.000231282 0)
(63.8083 0.000214276 0)
(63.8084 0.000166552 0)
(63.8083 0.00013582 0)
(63.8082 0.000149564 0)
(63.8081 0.000169758 0)
(63.8081 0.00014927 0)
(63.8082 0.000111987 0)
(63.8082 9.80946e-05 0)
(63.808 0.000103635 0)
(63.808 0.000102179 0)
(63.8081 0.0001071 0)
(63.8082 0.000137683 0)
(63.8083 0.000169648 0)
(63.8083 0.00018949 0)
(63.8084 0.000218863 0)
(63.8084 0.000238768 0)
(63.8084 0.000213611 0)
(63.8084 0.000178407 0)
(63.8084 0.000172582 0)
(63.8084 0.000176968 0)
(63.8084 0.000166444 0)
(63.8082 0.000151203 0)
(63.8081 0.000163052 0)
(63.8081 0.000201942 0)
(63.8081 0.00023709 0)
(63.8082 0.000250063 0)
(63.8083 0.000254903 0)
(63.8085 0.000270793 0)
(63.8086 0.000272077 0)
(63.8085 0.000251276 0)
(63.8086 0.00025114 0)
(63.8086 0.000278328 0)
(63.8087 0.000307275 0)
(63.8089 0.000312962 0)
(63.8089 0.000286724 0)
(63.8089 0.000250979 0)
(63.8088 0.000209752 0)
(63.8088 0.000167755 0)
(63.8089 0.000169449 0)
(63.809 0.000212913 0)
(63.8091 0.000232285 0)
(63.8091 0.000199694 0)
(63.8091 0.000152737 0)
(63.8091 0.000128302 0)
(63.8091 0.000123792 0)
(63.8091 0.00013412 0)
(63.8091 0.000166152 0)
(63.8091 0.000193463 0)
(63.8091 0.000180988 0)
(63.8091 0.000146327 0)
(63.8091 0.000133186 0)
(63.8092 0.000148371 0)
(63.8093 0.000173913 0)
(63.8094 0.000219649 0)
(63.8095 0.000278713 0)
(63.8095 0.000289328 0)
(63.8095 0.000237791 0)
(63.8095 0.000189559 0)
(63.8095 0.000177697 0)
(63.8095 0.000179993 0)
(63.8095 0.000184788 0)
(63.8095 0.000195622 0)
(63.8095 0.000203354 0)
(63.8096 0.00020512 0)
(63.8096 0.000216616 0)
(63.8097 0.000240857 0)
(63.8097 0.000256289 0)
(63.8097 0.000249933 0)
(63.8098 0.000224266 0)
(63.8098 0.000181877 0)
(63.8097 0.000146078 0)
(63.8098 0.000145994 0)
(63.8099 0.000165165 0)
(63.81 0.000177233 0)
(63.8101 0.000180971 0)
(63.8101 0.000176809 0)
(63.8102 0.000180665 0)
(63.8103 0.000203708 0)
(63.8104 0.00021118 0)
(63.8104 0.00018481 0)
(63.8105 0.00015652 0)
(63.8105 0.000160497 0)
(63.8106 0.000203872 0)
(63.8107 0.000259454 0)
(63.8109 0.000291439 0)
(63.8109 0.000294311 0)
(63.8109 0.000281532 0)
(63.8109 0.000267529 0)
(63.8109 0.000271152 0)
(63.8109 0.000299196 0)
(63.811 0.000321605 0)
(63.811 0.000304603 0)
(63.811 0.000266498 0)
(63.811 0.000246207 0)
(63.8111 0.000244893 0)
(63.8111 0.000248535 0)
(63.8111 0.000261739 0)
(63.8112 0.000285085 0)
(63.8112 0.000301504 0)
(63.8111 0.000300817 0)
(63.8111 0.000288504 0)
(63.8111 0.000272804 0)
(63.8111 0.000256607 0)
(63.8111 0.000242656 0)
(63.8112 0.000244465 0)
(63.8112 0.000256442 0)
(63.8112 0.00024264 0)
(63.8112 0.000204397 0)
(63.8112 0.000181183 0)
(63.8112 0.000181103 0)
(63.8111 0.000187678 0)
(63.8112 0.00019788 0)
(63.8112 0.000214819 0)
(63.8112 0.000226681 0)
(63.8111 0.000223617 0)
(63.8111 0.000223357 0)
(63.8112 0.000243467 0)
(63.8113 0.000275269 0)
(63.8113 0.000298053 0)
(63.8113 0.000298694 0)
(63.8112 0.000282276 0)
(63.8112 0.000253879 0)
(63.8112 0.000215894 0)
(63.8112 0.000193254 0)
(63.8113 0.000207577 0)
(63.8114 0.000247183 0)
(63.8115 0.00029198 0)
(63.8115 0.000325688 0)
(63.8115 0.000330174 0)
(63.8115 0.000305137 0)
(63.8114 0.000273714 0)
(63.8114 0.000256329 0)
(63.8113 0.000257356 0)
(63.8114 0.000263202 0)
(63.8114 0.000250892 0)
(63.8115 0.000222949 0)
(63.8116 0.000208528 0)
(63.8117 0.000216297 0)
(63.8118 0.000229267 0)
(63.8119 0.000240972 0)
(63.8119 0.000251468 0)
(63.8119 0.000244487 0)
(63.8119 0.000218254 0)
(63.8119 0.00020386 0)
(63.812 0.000215595 0)
(63.812 0.000237643 0)
(63.8121 0.000255845 0)
(63.8122 0.000261797 0)
(63.8123 0.00025368 0)
(63.8123 0.00023633 0)
(63.8124 0.000217114 0)
(63.8124 0.000208187 0)
(63.8124 0.000211678 0)
(63.8125 0.000220818 0)
(63.8126 0.000238575 0)
(63.8127 0.000259078 0)
(63.8128 0.000262379 0)
(63.8128 0.000251037 0)
(63.8128 0.000242604 0)
(63.8129 0.000236425 0)
(63.8128 0.000230567 0)
(63.8129 0.000232287 0)
(63.8129 0.000239025 0)
(63.8129 0.00024908 0)
(63.813 0.000265911 0)
(63.813 0.000279526 0)
(63.8131 0.000281866 0)
(63.8131 0.000281112 0)
(63.8132 0.000278336 0)
(63.8132 0.000264199 0)
(63.8132 0.000244772 0)
(63.8132 0.000237467 0)
(63.8132 0.000241513 0)
(63.8132 0.000242434 0)
(63.8132 0.000240447 0)
(63.8133 0.000249594 0)
(63.8134 0.000270676 0)
(63.8135 0.000281518 0)
(63.8135 0.00026545 0)
(63.8136 0.000232257 0)
(63.8136 0.000200753 0)
(63.8136 0.000188335 0)
(63.8137 0.000204713 0)
(63.8137 0.000233047 0)
(63.8138 0.000247123 0)
(63.8138 0.000246389 0)
(63.8138 0.000247798 0)
(63.8139 0.00025481 0)
(63.8139 0.000255665 0)
(63.8139 0.000250503 0)
(63.8139 0.000255025 0)
(63.814 0.000269315 0)
(63.814 0.000274994 0)
(63.814 0.000269856 0)
(63.8141 0.000272786 0)
(63.8141 0.00029188 0)
(63.8142 0.000312507 0)
(63.8142 0.000317672 0)
(63.8141 0.000306407 0)
(63.8141 0.000294854 0)
(63.8141 0.000296601 0)
(63.8141 0.000302625 0)
(63.814 0.000302103 0)
(63.8141 0.0003031 0)
(63.8141 0.000308678 0)
(63.8141 0.000306517 0)
(63.8141 0.00029338 0)
(63.8141 0.000278366 0)
(63.8141 0.000280586 0)
(50.5041 9.92851e-06 0)
(85.3617 0.000136413 0)
(73.1891 0.000286098 0)
(60.5584 0.000338164 0)
(59.8203 0.000349548 0)
(63.2784 0.000338941 0)
(64.7856 0.000322317 0)
(64.3345 0.000307208 0)
(63.7189 0.000310707 0)
(63.6176 0.000324989 0)
(63.7608 0.000340425 0)
(63.8457 0.00037181 0)
(63.8357 0.000360819 0)
(63.807 0.000314151 0)
(63.7987 0.000288951 0)
(63.8041 0.000282286 0)
(63.8085 0.000302744 0)
(63.8087 0.000342544 0)
(63.8075 0.000363727 0)
(63.807 0.000374389 0)
(63.8074 0.000427219 0)
(63.8077 0.00050441 0)
(63.8075 0.000550861 0)
(63.8074 0.000552568 0)
(63.8074 0.000511824 0)
(63.8075 0.000460153 0)
(63.8077 0.00039961 0)
(63.8078 0.000321508 0)
(63.8077 0.000264644 0)
(63.8078 0.000231998 0)
(63.808 0.00020572 0)
(63.808 0.000198502 0)
(63.808 0.000230293 0)
(63.8079 0.000295769 0)
(63.808 0.000358207 0)
(63.808 0.000377249 0)
(63.8079 0.000348405 0)
(63.8078 0.000325366 0)
(63.8077 0.000316663 0)
(63.8076 0.000305107 0)
(63.8077 0.000309045 0)
(63.8078 0.000341274 0)
(63.8078 0.000405434 0)
(63.8079 0.000472649 0)
(63.808 0.000500645 0)
(63.808 0.000478837 0)
(63.808 0.000423233 0)
(63.808 0.000384852 0)
(63.8081 0.000405312 0)
(63.8082 0.000447598 0)
(63.8082 0.000447248 0)
(63.808 0.000406357 0)
(63.808 0.000361714 0)
(63.8081 0.000316174 0)
(63.8081 0.000281804 0)
(63.8082 0.000303014 0)
(63.8083 0.000379103 0)
(63.8084 0.000441154 0)
(63.8084 0.00045928 0)
(63.8086 0.000455493 0)
(63.8087 0.00045104 0)
(63.8087 0.000461308 0)
(63.8088 0.000470302 0)
(63.8088 0.000450171 0)
(63.8088 0.000399554 0)
(63.8088 0.000326314 0)
(63.8089 0.000238096 0)
(63.8089 0.000175298 0)
(63.809 0.000196578 0)
(63.809 0.00027543 0)
(63.8091 0.000326307 0)
(63.8091 0.000325492 0)
(63.8091 0.000292866 0)
(63.8091 0.000256546 0)
(63.8092 0.000245396 0)
(63.8092 0.000265991 0)
(63.8093 0.000316548 0)
(63.8094 0.000367365 0)
(63.8093 0.000370386 0)
(63.8093 0.000337927 0)
(63.8093 0.000322522 0)
(63.8094 0.000335816 0)
(63.8095 0.000358029 0)
(63.8095 0.000386486 0)
(63.8095 0.000420736 0)
(63.8095 0.000433399 0)
(63.8095 0.000412894 0)
(63.8095 0.000389712 0)
(63.8095 0.00038237 0)
(63.8095 0.000376139 0)
(63.8095 0.000361703 0)
(63.8095 0.000354357 0)
(63.8094 0.000358935 0)
(63.8094 0.000344025 0)
(63.8093 0.000310572 0)
(63.8094 0.000308583 0)
(63.8096 0.000333655 0)
(63.8096 0.000335324 0)
(63.8096 0.000318147 0)
(63.8096 0.000319588 0)
(63.8097 0.000340106 0)
(63.8098 0.000366496 0)
(63.8099 0.000393105 0)
(63.8098 0.000403195 0)
(63.8098 0.000385781 0)
(63.8098 0.000361127 0)
(63.8099 0.000352888 0)
(63.8099 0.000358909 0)
(63.81 0.000370349 0)
(63.81 0.000386702 0)
(63.8101 0.000392235 0)
(63.8101 0.000369651 0)
(63.81 0.000336038 0)
(63.81 0.00031049 0)
(63.81 0.000296996 0)
(63.81 0.000299215 0)
(63.81 0.000299894 0)
(63.81 0.000289551 0)
(63.81 0.000294961 0)
(63.81 0.000321689 0)
(63.81 0.000342094 0)
(63.81 0.000337769 0)
(63.81 0.000309371 0)
(63.8099 0.000276268 0)
(63.8099 0.00026188 0)
(63.8099 0.000273395 0)
(63.81 0.000305051 0)
(63.8101 0.000341844 0)
(63.8101 0.000359332 0)
(63.8101 0.000347171 0)
(63.8102 0.00033029 0)
(63.8102 0.000329055 0)
(63.8103 0.0003224 0)
(63.8103 0.000296623 0)
(63.8104 0.000275424 0)
(63.8105 0.000271492 0)
(63.8105 0.000274586 0)
(63.8105 0.000288095 0)
(63.8105 0.000321822 0)
(63.8106 0.000364595 0)
(63.8106 0.00039783 0)
(63.8107 0.000414071 0)
(63.8107 0.000414908 0)
(63.8108 0.00040238 0)
(63.8108 0.000371807 0)
(63.8108 0.000335017 0)
(63.8109 0.000319537 0)
(63.811 0.000317733 0)
(63.811 0.00030904 0)
(63.811 0.000310597 0)
(63.8111 0.000335843 0)
(63.8111 0.000363926 0)
(63.8112 0.0003795 0)
(63.8112 0.000389838 0)
(63.8113 0.000395237 0)
(63.8113 0.00038111 0)
(63.8113 0.000349044 0)
(63.8113 0.00032015 0)
(63.8113 0.000309237 0)
(63.8114 0.00031303 0)
(63.8115 0.000318134 0)
(63.8116 0.000322829 0)
(63.8117 0.000329442 0)
(63.8117 0.00032426 0)
(63.8117 0.000302644 0)
(63.8117 0.000279684 0)
(63.8117 0.000263346 0)
(63.8118 0.000258495 0)
(63.8119 0.00027821 0)
(63.8119 0.000319506 0)
(63.812 0.000357687 0)
(63.8121 0.000373896 0)
(63.8122 0.000363564 0)
(63.8122 0.000335452 0)
(63.8123 0.000308523 0)
(63.8123 0.000287642 0)
(63.8123 0.000266386 0)
(63.8123 0.000254544 0)
(63.8123 0.000262189 0)
(63.8123 0.000276636 0)
(63.8124 0.000290503 0)
(63.8124 0.000316924 0)
(63.8125 0.000348127 0)
(63.8124 0.000354443 0)
(63.8124 0.000336872 0)
(63.8124 0.000317342 0)
(63.8123 0.000304738 0)
(63.8124 0.000303001 0)
(63.8124 0.000308563 0)
(63.8124 0.000309268 0)
(63.8123 0.000300759 0)
(63.8123 0.000287198 0)
(63.8123 0.000278962 0)
(63.8124 0.000280753 0)
(63.8123 0.000282106 0)
(63.8123 0.00028291 0)
(63.8124 0.000294714 0)
(63.8124 0.00030922 0)
(63.8124 0.00031489 0)
(63.8125 0.000320806 0)
(63.8125 0.000329426 0)
(63.8126 0.000331853 0)
(63.8126 0.000329479 0)
(63.8127 0.000321085 0)
(63.8127 0.000303759 0)
(63.8127 0.000291013 0)
(63.8128 0.000291279 0)
(63.8128 0.00029664 0)
(63.8129 0.000306677 0)
(63.813 0.000325961 0)
(63.813 0.000344063 0)
(63.813 0.00034891 0)
(63.8131 0.000346575 0)
(63.8131 0.000344168 0)
(63.8131 0.000332115 0)
(63.8131 0.000301233 0)
(63.8131 0.000263247 0)
(63.8131 0.000242628 0)
(63.8131 0.000247356 0)
(63.8131 0.000264207 0)
(63.8132 0.000281972 0)
(63.8132 0.000292746 0)
(63.8132 0.000291324 0)
(63.8131 0.000289497 0)
(63.8132 0.000299359 0)
(63.8132 0.000312691 0)
(63.8132 0.000319634 0)
(63.8132 0.000324911 0)
(63.8132 0.000333437 0)
(63.8132 0.000337039 0)
(63.8132 0.000327853 0)
(63.8132 0.000315926 0)
(63.8133 0.000313511 0)
(63.8133 0.000311645 0)
(63.8133 0.000297802 0)
(63.8133 0.00028186 0)
(63.8134 0.000282298 0)
(63.8134 0.000301337 0)
(63.8135 0.000323941 0)
(63.8136 0.000332973 0)
(63.8136 0.000327334 0)
(63.8137 0.000320391 0)
(63.8137 0.000316162 0)
(63.8138 0.000309977 0)
(63.8138 0.000307811 0)
(63.8139 0.000317476 0)
(63.814 0.000334495 0)
(63.814 0.000344021 0)
(63.814 0.000340128 0)
(63.8141 0.000346258 0)
(50.5039 2.54816e-05 0)
(85.3619 4.21963e-05 0)
(73.1891 6.72129e-05 0)
(60.5583 0.000113483 0)
(59.8208 0.000114886 0)
(63.2785 0.000133063 0)
(64.786 0.000162962 0)
(64.335 0.000133755 0)
(63.7191 8.30657e-05 0)
(63.6174 5.36666e-05 0)
(63.7605 8.33726e-05 0)
(63.8453 0.000130689 0)
(63.8355 0.000171898 0)
(63.8066 0.00020664 0)
(63.7985 0.000236045 0)
(63.804 0.000238063 0)
(63.8085 0.000201093 0)
(63.8084 0.000147107 0)
(63.8072 0.000125672 0)
(63.8066 0.000112457 0)
(63.8067 9.94764e-05 0)
(63.8071 0.000134105 0)
(63.8073 0.000167748 0)
(63.8074 0.000154416 0)
(63.8076 0.000100008 0)
(63.8076 6.60811e-05 0)
(63.8076 0.000104879 0)
(63.8076 0.000172267 0)
(63.8075 0.000206278 0)
(63.8074 0.000189188 0)
(63.8073 0.000175854 0)
(63.8072 0.000196702 0)
(63.8071 0.000214122 0)
(63.8072 0.000230177 0)
(63.8072 0.000241959 0)
(63.8072 0.000238081 0)
(63.8074 0.000254303 0)
(63.8076 0.000302713 0)
(63.8076 0.00031837 0)
(63.8076 0.000242858 0)
(63.8076 0.000136721 0)
(63.8077 9.54688e-05 0)
(63.8077 0.000123705 0)
(63.8077 0.00014049 0)
(63.8078 9.89299e-05 0)
(63.8079 5.19663e-05 0)
(63.808 5.1046e-05 0)
(63.8081 7.43624e-05 0)
(63.8081 0.000103163 0)
(63.808 0.000151125 0)
(63.8082 0.000196693 0)
(63.8083 0.000192726 0)
(63.8084 0.000147023 0)
(63.8084 0.000106573 0)
(63.8084 8.77903e-05 0)
(63.8083 8.53169e-05 0)
(63.8083 0.000102494 0)
(63.8084 0.000102775 0)
(63.8084 5.6303e-05 0)
(63.8084 4.33754e-06 0)
(63.8085 -1.04201e-05 0)
(63.8086 2.07974e-05 0)
(63.8087 7.93465e-05 0)
(63.8087 0.000128945 0)
(63.8087 0.000157387 0)
(63.8088 0.000179607 0)
(63.8088 0.000187107 0)
(63.8088 0.000160794 0)
(63.8087 0.0001407 0)
(63.8087 0.000166487 0)
(63.8087 0.00020922 0)
(63.8087 0.000237139 0)
(63.8087 0.000239986 0)
(63.8087 0.000223721 0)
(63.8086 0.000206783 0)
(63.8086 0.000186832 0)
(63.8086 0.00017346 0)
(63.8087 0.000187118 0)
(63.8087 0.000202371 0)
(63.8088 0.000190025 0)
(63.8088 0.000167432 0)
(63.8088 0.000156946 0)
(63.8088 0.000148078 0)
(63.8089 0.000131334 0)
(63.809 0.000128876 0)
(63.8091 0.000147029 0)
(63.8091 0.000157919 0)
(63.8092 0.000153413 0)
(63.8094 0.000153711 0)
(63.8095 0.000167543 0)
(63.8096 0.000180015 0)
(63.8096 0.000191101 0)
(63.8096 0.000222963 0)
(63.8097 0.000251512 0)
(63.8097 0.000228354 0)
(63.8096 0.00017702 0)
(63.8096 0.000147218 0)
(63.8097 0.000130102 0)
(63.8098 0.000106968 0)
(63.8098 9.58984e-05 0)
(63.8098 0.000100837 0)
(63.8098 0.000106053 0)
(63.8099 0.000120305 0)
(63.81 0.000150203 0)
(63.8101 0.000174323 0)
(63.8101 0.000183119 0)
(63.8101 0.000188588 0)
(63.8102 0.000192242 0)
(63.8102 0.000188499 0)
(63.8102 0.000185664 0)
(63.8103 0.000185933 0)
(63.8104 0.000178131 0)
(63.8104 0.000168106 0)
(63.8105 0.000167689 0)
(63.8105 0.000178216 0)
(63.8105 0.000202483 0)
(63.8106 0.000224152 0)
(63.8105 0.000217343 0)
(63.8105 0.000190951 0)
(63.8106 0.000173079 0)
(63.8106 0.000178086 0)
(63.8106 0.000200459 0)
(63.8107 0.000221898 0)
(63.8107 0.000232068 0)
(63.8107 0.000230106 0)
(63.8107 0.000218307 0)
(63.8107 0.000207626 0)
(63.8107 0.000211072 0)
(63.8107 0.000223788 0)
(63.8107 0.000221309 0)
(63.8108 0.00020001 0)
(63.8108 0.000187294 0)
(63.8109 0.000187921 0)
(63.8109 0.000180769 0)
(63.8109 0.000167036 0)
(63.8109 0.000163987 0)
(63.8109 0.000170412 0)
(63.8109 0.000177027 0)
(63.8109 0.000188845 0)
(63.811 0.000209598 0)
(63.811 0.000228129 0)
(63.811 0.000233553 0)
(63.811 0.000227205 0)
(63.8111 0.000216436 0)
(63.8111 0.000194208 0)
(63.8111 0.000153493 0)
(63.8111 0.000121371 0)
(63.8112 0.000117405 0)
(63.8113 0.000119997 0)
(63.8113 0.000119114 0)
(63.8113 0.000129976 0)
(63.8113 0.000150449 0)
(63.8113 0.000161805 0)
(63.8113 0.000161248 0)
(63.8114 0.000160429 0)
(63.8115 0.00016063 0)
(63.8116 0.000155998 0)
(63.8116 0.000149133 0)
(63.8116 0.000150122 0)
(63.8116 0.00016139 0)
(63.8117 0.00016868 0)
(63.8117 0.000167037 0)
(63.8117 0.000170274 0)
(63.8118 0.00017944 0)
(63.8118 0.000185487 0)
(63.8119 0.000189061 0)
(63.8119 0.000187105 0)
(63.8118 0.000171775 0)
(63.8118 0.000152275 0)
(63.8118 0.000146593 0)
(63.8118 0.000157406 0)
(63.8119 0.000177038 0)
(63.8119 0.000193501 0)
(63.8119 0.00019593 0)
(63.8119 0.000193659 0)
(63.812 0.000198011 0)
(63.812 0.000199259 0)
(63.812 0.000194237 0)
(63.812 0.000196265 0)
(63.812 0.000202945 0)
(63.812 0.00019927 0)
(63.812 0.000195974 0)
(63.8121 0.000213583 0)
(63.8122 0.000241063 0)
(63.8122 0.000259575 0)
(63.8123 0.000267068 0)
(63.8123 0.000263404 0)
(63.8123 0.000253456 0)
(63.8124 0.00024758 0)
(63.8124 0.000249959 0)
(63.8125 0.000257478 0)
(63.8125 0.000259675 0)
(63.8125 0.000253495 0)
(63.8126 0.000248077 0)
(63.8126 0.000239415 0)
(63.8126 0.000219076 0)
(63.8126 0.000198663 0)
(63.8126 0.000184155 0)
(63.8126 0.000164646 0)
(63.8126 0.000144338 0)
(63.8126 0.000134905 0)
(63.8126 0.000133878 0)
(63.8126 0.000141968 0)
(63.8127 0.000158758 0)
(63.8127 0.000170869 0)
(63.8127 0.00017671 0)
(63.8127 0.000184552 0)
(63.8126 0.000188491 0)
(63.8126 0.000183275 0)
(63.8126 0.000180255 0)
(63.8127 0.000185169 0)
(63.8127 0.000187323 0)
(63.8127 0.000184812 0)
(63.8128 0.000191572 0)
(63.8129 0.000213602 0)
(63.8129 0.000237526 0)
(63.813 0.000245321 0)
(63.813 0.000237786 0)
(63.8131 0.000229234 0)
(63.8131 0.000224765 0)
(63.8131 0.000225421 0)
(63.8132 0.000230514 0)
(63.8133 0.000228308 0)
(63.8133 0.000215741 0)
(63.8134 0.000207277 0)
(63.8134 0.000208777 0)