/*--------------------------------*- C++ -*----------------------------------*\
| =========                 |                                                 |
| \\      /  F ield         | OpenFOAM: The Open Source CFD Toolbox           |
|  \\    /   O peration     | Version:  2406                                  |
|   \\  /    A nd           | Website:  www.openfoam.com                      |
|    \\/     M anipulation  |                                                 |
\*---------------------------------------------------------------------------*/
FoamFile
{
    version     2.0;
    format      ascii;
    arch        "LSB;label=32;scalar=64";
    class       surfaceScalarField;
    location    "0.35";
    object      phi;
}
// * * * * * * * * * * * * * * * * * * * * * * * * * * * * * * * * * * * * * //

dimensions      [0 3 -1 0 0 0 0];

oriented        oriented;

internalField   nonuniform List<scalar> 
12225
(
5.08772e-05
5.09877e-09
5.08602e-05
1.69807e-08
5.08395e-05
2.06717e-08
5.08206e-05
1.8876e-08
5.08021e-05
1.85314e-08
5.07817e-05
2.04321e-08
5.07594e-05
2.22739e-08
5.07362e-05
2.3172e-08
5.07127e-05
2.35355e-08
5.06888e-05
2.3901e-08
5.06644e-05
2.43515e-08
5.06397e-05
2.47591e-08
5.06146e-05
2.50625e-08
5.05893e-05
2.52905e-08
5.05638e-05
2.5483e-08
5.05382e-05
2.56532e-08
5.05124e-05
2.57994e-08
5.04865e-05
2.59213e-08
5.04604e-05
2.60228e-08
5.04343e-05
2.61087e-08
5.04081e-05
2.61821e-08
5.03819e-05
2.62446e-08
5.03556e-05
2.62976e-08
5.03293e-05
2.63425e-08
5.03029e-05
2.63806e-08
5.02765e-05
2.64128e-08
5.025e-05
2.64401e-08
5.02236e-05
2.6463e-08
5.01971e-05
2.64822e-08
5.01706e-05
2.64982e-08
5.01441e-05
2.65113e-08
5.01176e-05
2.65221e-08
5.0091e-05
2.65307e-08
5.00645e-05
2.65375e-08
5.00379e-05
2.65426e-08
5.00114e-05
2.65464e-08
4.99848e-05
2.65489e-08
4.99583e-05
2.65503e-08
4.99317e-05
2.65508e-08
4.99052e-05
2.65504e-08
4.98786e-05
2.65493e-08
4.98521e-05
2.65476e-08
4.98256e-05
2.65452e-08
4.9799e-05
2.65424e-08
4.97725e-05
2.65391e-08
4.97459e-05
2.65355e-08
4.97194e-05
2.65314e-08
4.96929e-05
2.65271e-08
4.96664e-05
2.65225e-08
4.96398e-05
2.65176e-08
4.96133e-05
2.65126e-08
4.95868e-05
2.65073e-08
4.95603e-05
2.65019e-08
4.95338e-05
2.64963e-08
4.95073e-05
2.64906e-08
4.94808e-05
2.64848e-08
4.94544e-05
2.64788e-08
4.94279e-05
2.64728e-08
4.94014e-05
2.64667e-08
4.9375e-05
2.64605e-08
4.93485e-05
2.64542e-08
4.93221e-05
2.64479e-08
4.92956e-05
2.64415e-08
4.92692e-05
2.64351e-08
4.92428e-05
2.64286e-08
4.92163e-05
2.64221e-08
4.91899e-05
2.64156e-08
4.91635e-05
2.6409e-08
4.91371e-05
2.64024e-08
4.91107e-05
2.63958e-08
4.90843e-05
2.63891e-08
4.90579e-05
2.63825e-08
4.90316e-05
2.63758e-08
4.90052e-05
2.6369e-08
4.89788e-05
2.63623e-08
4.89525e-05
2.63556e-08
4.89261e-05
2.63488e-08
4.88998e-05
2.63421e-08
4.88734e-05
2.63353e-08
4.88471e-05
2.63285e-08
4.88208e-05
2.63217e-08
4.87945e-05
2.63149e-08
4.87682e-05
2.63081e-08
4.87419e-05
2.63012e-08
4.87156e-05
2.62944e-08
4.86893e-05
2.62876e-08
4.8663e-05
2.62807e-08
4.86367e-05
2.62739e-08
4.86105e-05
2.6267e-08
4.85842e-05
2.62602e-08
4.8558e-05
2.62533e-08
4.85317e-05
2.62464e-08
4.85055e-05
2.62395e-08
4.84792e-05
2.62327e-08
4.8453e-05
2.62258e-08
4.84268e-05
2.62189e-08
4.84006e-05
2.6212e-08
4.83744e-05
2.62051e-08
4.83482e-05
2.61982e-08
4.8322e-05
2.61913e-08
4.82958e-05
2.61844e-08
4.82696e-05
2.61775e-08
4.82435e-05
2.61706e-08
4.82173e-05
2.61637e-08
4.81911e-05
2.61567e-08
4.8165e-05
2.61498e-08
4.81388e-05
2.61429e-08
4.81127e-05
2.6136e-08
4.80866e-05
2.6129e-08
4.80605e-05
2.61221e-08
4.80343e-05
2.61151e-08
4.80082e-05
2.61082e-08
4.79821e-05
2.61012e-08
4.7956e-05
2.60943e-08
4.79299e-05
2.60873e-08
4.79039e-05
2.60804e-08
4.78778e-05
2.60734e-08
4.78517e-05
2.60665e-08
4.78257e-05
2.60595e-08
4.77996e-05
2.60525e-08
4.77736e-05
2.60456e-08
4.77475e-05
2.60386e-08
4.77215e-05
2.60316e-08
4.76955e-05
2.60246e-08
4.76695e-05
2.60176e-08
4.76434e-05
2.60107e-08
4.76174e-05
2.60037e-08
4.75914e-05
2.59967e-08
4.75655e-05
2.59897e-08
4.75395e-05
2.59827e-08
4.75135e-05
2.59757e-08
4.74875e-05
2.59687e-08
4.74616e-05
2.59617e-08
4.74356e-05
2.59547e-08
4.74097e-05
2.59476e-08
4.73837e-05
2.59406e-08
4.73578e-05
2.59336e-08
4.73319e-05
2.59266e-08
4.73059e-05
2.59195e-08
4.728e-05
2.59125e-08
4.72541e-05
2.59055e-08
4.72282e-05
2.58984e-08
4.72023e-05
2.58914e-08
4.71765e-05
2.58844e-08
4.71506e-05
2.58773e-08
4.71247e-05
2.58703e-08
4.70988e-05
2.58632e-08
4.7073e-05
2.58561e-08
4.70471e-05
2.58491e-08
4.70213e-05
2.5842e-08
4.69955e-05
2.58349e-08
4.69696e-05
2.58279e-08
4.69438e-05
2.58208e-08
4.6918e-05
2.58137e-08
4.68922e-05
2.58066e-08
4.68664e-05
2.57996e-08
4.68406e-05
2.57925e-08
4.68148e-05
2.57854e-08
4.6789e-05
2.57783e-08
4.67633e-05
2.57712e-08
4.67375e-05
2.5764e-08
4.67117e-05
2.57569e-08
4.6686e-05
2.57498e-08
4.66603e-05
2.57427e-08
4.66345e-05
2.57356e-08
4.66088e-05
2.57285e-08
4.65831e-05
2.57214e-08
4.65574e-05
2.57142e-08
4.65316e-05
2.57071e-08
4.65059e-05
2.57e-08
4.64803e-05
2.56928e-08
4.64546e-05
2.56856e-08
4.64289e-05
2.56785e-08
4.64032e-05
2.56713e-08
4.63776e-05
2.56642e-08
4.63519e-05
2.5657e-08
4.63262e-05
2.56499e-08
4.63006e-05
2.56427e-08
4.6275e-05
2.56356e-08
4.62493e-05
2.56284e-08
4.62237e-05
2.56212e-08
4.61981e-05
2.5614e-08
4.61725e-05
2.56068e-08
4.61469e-05
2.55995e-08
4.61213e-05
2.55923e-08
4.60957e-05
2.55852e-08
4.60701e-05
2.5578e-08
4.60446e-05
2.55708e-08
4.6019e-05
2.55636e-08
4.59935e-05
2.55564e-08
4.59679e-05
2.55492e-08
4.59424e-05
2.5542e-08
4.59168e-05
2.55347e-08
4.58913e-05
2.55275e-08
4.58658e-05
2.55202e-08
4.58403e-05
2.5513e-08
4.58148e-05
2.55058e-08
4.57893e-05
2.54986e-08
4.57638e-05
2.54914e-08
4.57383e-05
2.54842e-08
4.57128e-05
2.5477e-08
4.56873e-05
2.54698e-08
4.56619e-05
2.54626e-08
4.56364e-05
2.54553e-08
4.5611e-05
2.54481e-08
4.55855e-05
2.54408e-08
4.55601e-05
2.54336e-08
4.55347e-05
2.54264e-08
4.55093e-05
2.54193e-08
4.54838e-05
2.54122e-08
4.54584e-05
2.54051e-08
4.5433e-05
2.53981e-08
4.54076e-05
2.5391e-08
4.53823e-05
2.53839e-08
4.53569e-05
2.53769e-08
4.53315e-05
2.53698e-08
4.53062e-05
2.53628e-08
4.52808e-05
2.53559e-08
4.52554e-05
2.5349e-08
4.52301e-05
2.53422e-08
4.52048e-05
2.53356e-08
4.51794e-05
2.53291e-08
4.51541e-05
2.53227e-08
4.51288e-05
2.53164e-08
4.51035e-05
2.53103e-08
4.50782e-05
2.53043e-08
4.50529e-05
2.52986e-08
4.50276e-05
2.52931e-08
4.50023e-05
2.5288e-08
4.4977e-05
2.52833e-08
4.49517e-05
2.52792e-08
4.49265e-05
2.52757e-08
4.49012e-05
2.5273e-08
4.48759e-05
2.52713e-08
4.48507e-05
2.52708e-08
4.48254e-05
2.5272e-08
4.48001e-05
2.52751e-08
4.47748e-05
2.52808e-08
4.47495e-05
2.52899e-08
4.47242e-05
2.53035e-08
4.46989e-05
2.53231e-08
4.46736e-05
2.5351e-08
4.46482e-05
2.53905e-08
4.46227e-05
2.54449e-08
4.45972e-05
2.55258e-08
4.45716e-05
2.56277e-08
4.45458e-05
2.58169e-08
4.45198e-05
2.59454e-08
4.44933e-05
2.65124e-08
2.5868e-08
5.0912e-05
-4.2173e-10
5.09272e-05
1.83832e-09
5.09428e-05
5.04522e-09
5.09541e-05
7.59854e-09
5.09642e-05
8.38713e-09
5.09761e-05
8.51259e-09
5.09894e-05
9.02385e-09
5.10028e-05
9.73894e-09
5.10161e-05
1.03035e-08
5.10293e-05
1.066e-08
5.10427e-05
1.09289e-08
5.10563e-05
1.11837e-08
5.10699e-05
1.14205e-08
5.10836e-05
1.16224e-08
5.10973e-05
1.17907e-08
5.1111e-05
1.1936e-08
5.11248e-05
1.20655e-08
5.11385e-05
1.21816e-08
5.11522e-05
1.22853e-08
5.1166e-05
1.23782e-08
5.11797e-05
1.24623e-08
5.11934e-05
1.25391e-08
5.12071e-05
1.26096e-08
5.12207e-05
1.26748e-08
5.12344e-05
1.27352e-08
5.1248e-05
1.27917e-08
5.12616e-05
1.28447e-08
5.12752e-05
1.28947e-08
5.12887e-05
1.29421e-08
5.13022e-05
1.29873e-08
5.13157e-05
1.30304e-08
5.13292e-05
1.30719e-08
5.13426e-05
1.31118e-08
5.1356e-05
1.31504e-08
5.13693e-05
1.31878e-08
5.13826e-05
1.32242e-08
5.13959e-05
1.32597e-08
5.14092e-05
1.32943e-08
5.14224e-05
1.33283e-08
5.14356e-05
1.33616e-08
5.14487e-05
1.33944e-08
5.14619e-05
1.34267e-08
5.1475e-05
1.34585e-08
5.1488e-05
1.34899e-08
5.1501e-05
1.3521e-08
5.1514e-05
1.35517e-08
5.1527e-05
1.35822e-08
5.15399e-05
1.36124e-08
5.15528e-05
1.36423e-08
5.15656e-05
1.36721e-08
5.15784e-05
1.37016e-08
5.15912e-05
1.3731e-08
5.16039e-05
1.37602e-08
5.16166e-05
1.37892e-08
5.16293e-05
1.38182e-08
5.16419e-05
1.3847e-08
5.16545e-05
1.38756e-08
5.16671e-05
1.39042e-08
5.16797e-05
1.39327e-08
5.16922e-05
1.3961e-08
5.17046e-05
1.39893e-08
5.1717e-05
1.40175e-08
5.17294e-05
1.40456e-08
5.17418e-05
1.40736e-08
5.17541e-05
1.41015e-08
5.17664e-05
1.41294e-08
5.17787e-05
1.41572e-08
5.17909e-05
1.41849e-08
5.18031e-05
1.42126e-08
5.18153e-05
1.42402e-08
5.18274e-05
1.42678e-08
5.18395e-05
1.42952e-08
5.18515e-05
1.43227e-08
5.18635e-05
1.435e-08
5.18755e-05
1.43773e-08
5.18875e-05
1.44046e-08
5.18994e-05
1.44318e-08
5.19113e-05
1.44589e-08
5.19231e-05
1.4486e-08
5.19349e-05
1.4513e-08
5.19467e-05
1.454e-08
5.19585e-05
1.45669e-08
5.19702e-05
1.45938e-08
5.19819e-05
1.46206e-08
5.19935e-05
1.46473e-08
5.20051e-05
1.4674e-08
5.20167e-05
1.47007e-08
5.20282e-05
1.47273e-08
5.20398e-05
1.47539e-08
5.20512e-05
1.47804e-08
5.20627e-05
1.48068e-08
5.20741e-05
1.48332e-08
5.20855e-05
1.48596e-08
5.20968e-05
1.48859e-08
5.21081e-05
1.49121e-08
5.21194e-05
1.49383e-08
5.21307e-05
1.49645e-08
5.21419e-05
1.49906e-08
5.21531e-05
1.50166e-08
5.21642e-05
1.50426e-08
5.21753e-05
1.50686e-08
5.21864e-05
1.50945e-08
5.21975e-05
1.51203e-08
5.22085e-05
1.51461e-08
5.22195e-05
1.51719e-08
5.22304e-05
1.51976e-08
5.22413e-05
1.52232e-08
5.22522e-05
1.52488e-08
5.22631e-05
1.52744e-08
5.22739e-05
1.52999e-08
5.22847e-05
1.53253e-08
5.22954e-05
1.53507e-08
5.23062e-05
1.53761e-08
5.23169e-05
1.54014e-08
5.23275e-05
1.54266e-08
5.23382e-05
1.54519e-08
5.23487e-05
1.5477e-08
5.23593e-05
1.55021e-08
5.23698e-05
1.55272e-08
5.23803e-05
1.55522e-08
5.23908e-05
1.55772e-08
5.24013e-05
1.56021e-08
5.24117e-05
1.5627e-08
5.2422e-05
1.56518e-08
5.24324e-05
1.56766e-08
5.24427e-05
1.57013e-08
5.2453e-05
1.5726e-08
5.24632e-05
1.57506e-08
5.24734e-05
1.57752e-08
5.24836e-05
1.57997e-08
5.24938e-05
1.58242e-08
5.25039e-05
1.58486e-08
5.2514e-05
1.5873e-08
5.2524e-05
1.58974e-08
5.2534e-05
1.59217e-08
5.2544e-05
1.59459e-08
5.2554e-05
1.59701e-08
5.25639e-05
1.59943e-08
5.25738e-05
1.60184e-08
5.25837e-05
1.60424e-08
5.25935e-05
1.60665e-08
5.26034e-05
1.60904e-08
5.26131e-05
1.61143e-08
5.26229e-05
1.61382e-08
5.26326e-05
1.6162e-08
5.26423e-05
1.61858e-08
5.26519e-05
1.62096e-08
5.26616e-05
1.62333e-08
5.26711e-05
1.62569e-08
5.26807e-05
1.62805e-08
5.26902e-05
1.6304e-08
5.26997e-05
1.63275e-08
5.27092e-05
1.6351e-08
5.27186e-05
1.63744e-08
5.27281e-05
1.63977e-08
5.27374e-05
1.6421e-08
5.27468e-05
1.64443e-08
5.27561e-05
1.64676e-08
5.27654e-05
1.64908e-08
5.27746e-05
1.65139e-08
5.27839e-05
1.6537e-08
5.27931e-05
1.656e-08
5.28022e-05
1.6583e-08
5.28114e-05
1.66059e-08
5.28205e-05
1.66288e-08
5.28296e-05
1.66516e-08
5.28386e-05
1.66745e-08
5.28476e-05
1.66973e-08
5.28566e-05
1.672e-08
5.28656e-05
1.67427e-08
5.28745e-05
1.67654e-08
5.28834e-05
1.6788e-08
5.28923e-05
1.68105e-08
5.29011e-05
1.6833e-08
5.29099e-05
1.68554e-08
5.29187e-05
1.68778e-08
5.29274e-05
1.69001e-08
5.29362e-05
1.69224e-08
5.29448e-05
1.69447e-08
5.29535e-05
1.6967e-08
5.29621e-05
1.69892e-08
5.29707e-05
1.70114e-08
5.29793e-05
1.70335e-08
5.29879e-05
1.70556e-08
5.29964e-05
1.70775e-08
5.30049e-05
1.70995e-08
5.30133e-05
1.71213e-08
5.30217e-05
1.71432e-08
5.30301e-05
1.7165e-08
5.30385e-05
1.71869e-08
5.30468e-05
1.72087e-08
5.30552e-05
1.72305e-08
5.30634e-05
1.72522e-08
5.30717e-05
1.72739e-08
5.30799e-05
1.72954e-08
5.30881e-05
1.73169e-08
5.30963e-05
1.73383e-08
5.31044e-05
1.73597e-08
5.31125e-05
1.73811e-08
5.31206e-05
1.74025e-08
5.31287e-05
1.74239e-08
5.31367e-05
1.74453e-08
5.31447e-05
1.74667e-08
5.31527e-05
1.74881e-08
5.31606e-05
1.75093e-08
5.31685e-05
1.75305e-08
5.31764e-05
1.75516e-08
5.31842e-05
1.75727e-08
5.31921e-05
1.75937e-08
5.31999e-05
1.76147e-08
5.32076e-05
1.76357e-08
5.32154e-05
1.76567e-08
5.32231e-05
1.76778e-08
5.32308e-05
1.76989e-08
5.32384e-05
1.772e-08
5.32461e-05
1.77411e-08
5.32537e-05
1.77622e-08
5.32612e-05
1.77832e-08
5.32688e-05
1.78042e-08
5.32763e-05
1.78252e-08
5.32838e-05
1.78463e-08
5.32912e-05
1.78674e-08
5.32987e-05
1.78887e-08
5.33061e-05
1.79101e-08
5.33135e-05
1.79316e-08
5.33208e-05
1.79533e-08
5.33281e-05
1.79752e-08
5.33354e-05
1.79973e-08
5.33427e-05
1.80196e-08
5.33499e-05
1.80422e-08
5.33572e-05
1.80653e-08
5.33643e-05
1.80888e-08
5.33715e-05
1.81129e-08
5.33786e-05
1.81377e-08
5.33857e-05
1.81635e-08
5.33928e-05
1.81904e-08
5.33999e-05
1.82187e-08
5.34069e-05
1.82487e-08
5.34139e-05
1.82808e-08
5.34209e-05
1.83156e-08
5.34279e-05
1.83536e-08
5.34348e-05
1.83954e-08
5.34418e-05
1.84418e-08
5.34487e-05
1.84933e-08
5.34557e-05
1.85508e-08
5.34627e-05
1.86115e-08
5.34699e-05
1.86794e-08
5.34771e-05
1.87381e-08
5.34848e-05
1.87996e-08
1.9028e-08
5.09061e-05
6.37228e-10
5.09053e-05
2.66e-09
5.09061e-05
4.21263e-09
5.09085e-05
5.20845e-09
5.0911e-05
5.95401e-09
5.09129e-05
6.60952e-09
5.09146e-05
7.25656e-09
5.09165e-05
7.85959e-09
5.09184e-05
8.36008e-09
5.09204e-05
8.75661e-09
5.09222e-05
9.08842e-09
5.0924e-05
9.38522e-09
5.09258e-05
9.65155e-09
5.09275e-05
9.88401e-09
5.09292e-05
1.00848e-08
5.09309e-05
1.02603e-08
5.09325e-05
1.0416e-08
5.09342e-05
1.05548e-08
5.09358e-05
1.06785e-08
5.09374e-05
1.07888e-08
5.09389e-05
1.08877e-08
5.09405e-05
1.09768e-08
5.0942e-05
1.10574e-08
5.09436e-05
1.11307e-08
5.09451e-05
1.11974e-08
5.09467e-05
1.12586e-08
5.09482e-05
1.13147e-08
5.09497e-05
1.13666e-08
5.09512e-05
1.14146e-08
5.09528e-05
1.14593e-08
5.09543e-05
1.15011e-08
5.09558e-05
1.15402e-08
5.09574e-05
1.15771e-08
5.09589e-05
1.1612e-08
5.09604e-05
1.16451e-08
5.0962e-05
1.16767e-08
5.09635e-05
1.17068e-08
5.09651e-05
1.17357e-08
5.09667e-05
1.17635e-08
5.09682e-05
1.17903e-08
5.09698e-05
1.18162e-08
5.09714e-05
1.18414e-08
5.0973e-05
1.18659e-08
5.09746e-05
1.18897e-08
5.09762e-05
1.1913e-08
5.09778e-05
1.19358e-08
5.09794e-05
1.19582e-08
5.09811e-05
1.19802e-08
5.09827e-05
1.20017e-08
5.09844e-05
1.2023e-08
5.0986e-05
1.2044e-08
5.09877e-05
1.20647e-08
5.09894e-05
1.20852e-08
5.0991e-05
1.21054e-08
5.09927e-05
1.21255e-08
5.09944e-05
1.21453e-08
5.09962e-05
1.2165e-08
5.09979e-05
1.21846e-08
5.09996e-05
1.22039e-08
5.10013e-05
1.22232e-08
5.10031e-05
1.22423e-08
5.10048e-05
1.22614e-08
5.10066e-05
1.22803e-08
5.10084e-05
1.22991e-08
5.10102e-05
1.23178e-08
5.1012e-05
1.23364e-08
5.10138e-05
1.23549e-08
5.10156e-05
1.23734e-08
5.10174e-05
1.23918e-08
5.10192e-05
1.24101e-08
5.10211e-05
1.24283e-08
5.10229e-05
1.24465e-08
5.10248e-05
1.24646e-08
5.10266e-05
1.24826e-08
5.10285e-05
1.25006e-08
5.10304e-05
1.25185e-08
5.10323e-05
1.25364e-08
5.10342e-05
1.25542e-08
5.10361e-05
1.25719e-08
5.1038e-05
1.25896e-08
5.104e-05
1.26073e-08
5.10419e-05
1.26249e-08
5.10439e-05
1.26424e-08
5.10458e-05
1.26599e-08
5.10478e-05
1.26774e-08
5.10498e-05
1.26947e-08
5.10518e-05
1.27121e-08
5.10538e-05
1.27294e-08
5.10558e-05
1.27467e-08
5.10578e-05
1.27639e-08
5.10598e-05
1.2781e-08
5.10618e-05
1.27981e-08
5.10639e-05
1.28152e-08
5.10659e-05
1.28322e-08
5.1068e-05
1.28492e-08
5.10701e-05
1.28662e-08
5.10722e-05
1.28831e-08
5.10743e-05
1.28999e-08
5.10763e-05
1.29168e-08
5.10785e-05
1.29335e-08
5.10806e-05
1.29503e-08
5.10827e-05
1.2967e-08
5.10848e-05
1.29836e-08
5.1087e-05
1.30002e-08
5.10891e-05
1.30168e-08
5.10913e-05
1.30333e-08
5.10935e-05
1.30498e-08
5.10957e-05
1.30663e-08
5.10979e-05
1.30827e-08
5.11001e-05
1.30991e-08
5.11023e-05
1.31154e-08
5.11045e-05
1.31317e-08
5.11067e-05
1.31479e-08
5.11089e-05
1.31642e-08
5.11112e-05
1.31803e-08
5.11135e-05
1.31965e-08
5.11157e-05
1.32126e-08
5.1118e-05
1.32287e-08
5.11203e-05
1.32447e-08
5.11226e-05
1.32607e-08
5.11249e-05
1.32766e-08
5.11272e-05
1.32926e-08
5.11295e-05
1.33084e-08
5.11318e-05
1.33243e-08
5.11342e-05
1.33401e-08
5.11365e-05
1.33559e-08
5.11389e-05
1.33716e-08
5.11412e-05
1.33873e-08
5.11436e-05
1.3403e-08
5.1146e-05
1.34186e-08
5.11484e-05
1.34342e-08
5.11508e-05
1.34498e-08
5.11532e-05
1.34653e-08
5.11556e-05
1.34808e-08
5.1158e-05
1.34963e-08
5.11604e-05
1.35117e-08
5.11629e-05
1.35271e-08
5.11653e-05
1.35424e-08
5.11678e-05
1.35578e-08
5.11703e-05
1.3573e-08
5.11727e-05
1.35883e-08
5.11752e-05
1.36035e-08
5.11777e-05
1.36187e-08
5.11802e-05
1.36338e-08
5.11827e-05
1.3649e-08
5.11853e-05
1.3664e-08
5.11878e-05
1.36791e-08
5.11903e-05
1.36941e-08
5.11929e-05
1.37091e-08
5.11954e-05
1.37241e-08
5.1198e-05
1.3739e-08
5.12006e-05
1.37539e-08
5.12032e-05
1.37688e-08
5.12058e-05
1.37836e-08
5.12084e-05
1.37984e-08
5.1211e-05
1.38131e-08
5.12136e-05
1.38279e-08
5.12162e-05
1.38426e-08
5.12188e-05
1.38573e-08
5.12215e-05
1.38719e-08
5.12241e-05
1.38866e-08
5.12268e-05
1.39012e-08
5.12295e-05
1.39157e-08
5.12321e-05
1.39302e-08
5.12348e-05
1.39447e-08
5.12375e-05
1.39591e-08
5.12402e-05
1.39735e-08
5.12429e-05
1.39879e-08
5.12456e-05
1.40023e-08
5.12484e-05
1.40166e-08
5.12511e-05
1.4031e-08
5.12538e-05
1.40453e-08
5.12566e-05
1.40596e-08
5.12593e-05
1.40738e-08
5.12621e-05
1.4088e-08
5.12649e-05
1.41021e-08
5.12677e-05
1.41162e-08
5.12705e-05
1.41303e-08
5.12733e-05
1.41443e-08
5.12761e-05
1.41584e-08
5.12789e-05
1.41724e-08
5.12817e-05
1.41864e-08
5.12846e-05
1.42005e-08
5.12874e-05
1.42145e-08
5.12902e-05
1.42284e-08
5.12931e-05
1.42423e-08
5.1296e-05
1.42561e-08
5.12988e-05
1.42699e-08
5.13017e-05
1.42836e-08
5.13046e-05
1.42974e-08
5.13075e-05
1.43111e-08
5.13104e-05
1.43249e-08
5.13133e-05
1.43386e-08
5.13162e-05
1.43524e-08
5.13192e-05
1.43661e-08
5.13221e-05
1.43798e-08
5.13251e-05
1.43934e-08
5.1328e-05
1.44069e-08
5.1331e-05
1.44204e-08
5.13339e-05
1.44339e-08
5.13369e-05
1.44474e-08
5.13399e-05
1.44608e-08
5.13429e-05
1.44743e-08
5.13459e-05
1.44879e-08
5.13489e-05
1.45014e-08
5.13519e-05
1.4515e-08
5.13549e-05
1.45285e-08
5.1358e-05
1.4542e-08
5.1361e-05
1.45554e-08
5.13641e-05
1.45688e-08
5.13671e-05
1.45821e-08
5.13702e-05
1.45954e-08
5.13732e-05
1.46088e-08
5.13763e-05
1.46222e-08
5.13794e-05
1.46357e-08
5.13825e-05
1.46493e-08
5.13856e-05
1.46629e-08
5.13887e-05
1.46765e-08
5.13918e-05
1.46902e-08
5.13949e-05
1.47039e-08
5.13981e-05
1.47176e-08
5.14012e-05
1.47314e-08
5.14043e-05
1.47452e-08
5.14075e-05
1.47592e-08
5.14107e-05
1.47733e-08
5.14138e-05
1.47877e-08
5.1417e-05
1.48023e-08
5.14202e-05
1.48171e-08
5.14234e-05
1.48322e-08
5.14266e-05
1.48477e-08
5.14298e-05
1.48636e-08
5.1433e-05
1.48799e-08
5.14362e-05
1.48967e-08
5.14394e-05
1.49142e-08
5.14426e-05
1.49324e-08
5.14459e-05
1.49516e-08
5.14491e-05
1.49717e-08
5.14524e-05
1.49932e-08
5.14556e-05
1.5016e-08
5.14589e-05
1.50405e-08
5.14622e-05
1.50667e-08
5.14655e-05
1.50949e-08
5.14688e-05
1.51251e-08
5.14722e-05
1.51571e-08
5.14755e-05
1.51899e-08
5.14789e-05
1.52237e-08
5.14823e-05
1.52517e-08
5.14858e-05
1.52841e-08
5.14893e-05
1.52735e-08
1.53215e-08
5.09108e-05
2.07718e-10
5.09121e-05
1.35278e-09
5.09137e-05
2.6539e-09
5.09151e-05
3.74583e-09
5.09165e-05
4.57153e-09
5.09179e-05
5.23791e-09
5.09193e-05
5.83295e-09
5.09208e-05
6.38352e-09
5.09223e-05
6.87785e-09
5.09237e-05
7.30561e-09
5.09251e-05
7.67392e-09
5.09265e-05
7.99661e-09
5.09279e-05
8.28247e-09
5.09292e-05
8.53493e-09
5.09306e-05
8.75674e-09
5.09319e-05
8.95186e-09
5.09332e-05
9.12439e-09
5.09344e-05
9.27754e-09
5.09357e-05
9.41374e-09
5.0937e-05
9.53507e-09
5.09382e-05
9.64344e-09
5.09394e-05
9.74058e-09
5.09407e-05
9.82794e-09
5.09419e-05
9.90677e-09
5.09431e-05
9.97812e-09
5.09443e-05
1.0043e-08
5.09455e-05
1.01021e-08
5.09467e-05
1.01562e-08
5.0948e-05
1.02059e-08
5.09492e-05
1.02518e-08
5.09504e-05
1.02943e-08
5.09516e-05
1.03338e-08
5.09528e-05
1.03708e-08
5.0954e-05
1.04054e-08
5.09552e-05
1.0438e-08
5.09564e-05
1.04688e-08
5.09576e-05
1.0498e-08
5.09588e-05
1.05258e-08
5.096e-05
1.05524e-08
5.09612e-05
1.05779e-08
5.09625e-05
1.06025e-08
5.09637e-05
1.06261e-08
5.09649e-05
1.06491e-08
5.09661e-05
1.06713e-08
5.09673e-05
1.06929e-08
5.09685e-05
1.07141e-08
5.09698e-05
1.07347e-08
5.0971e-05
1.07549e-08
5.09722e-05
1.07747e-08
5.09735e-05
1.07942e-08
5.09747e-05
1.08134e-08
5.09759e-05
1.08323e-08
5.09771e-05
1.0851e-08
5.09784e-05
1.08694e-08
5.09796e-05
1.08877e-08
5.09809e-05
1.09057e-08
5.09821e-05
1.09236e-08
5.09833e-05
1.09414e-08
5.09846e-05
1.0959e-08
5.09858e-05
1.09764e-08
5.09871e-05
1.09938e-08
5.09883e-05
1.10111e-08
5.09896e-05
1.10282e-08
5.09908e-05
1.10453e-08
5.09921e-05
1.10622e-08
5.09934e-05
1.10791e-08
5.09946e-05
1.10959e-08
5.09959e-05
1.11127e-08
5.09971e-05
1.11293e-08
5.09984e-05
1.11459e-08
5.09997e-05
1.11625e-08
5.10009e-05
1.1179e-08
5.10022e-05
1.11954e-08
5.10035e-05
1.12118e-08
5.10047e-05
1.12281e-08
5.1006e-05
1.12443e-08
5.10073e-05
1.12605e-08
5.10086e-05
1.12767e-08
5.10099e-05
1.12928e-08
5.10111e-05
1.13089e-08
5.10124e-05
1.13249e-08
5.10137e-05
1.13409e-08
5.1015e-05
1.13568e-08
5.10163e-05
1.13727e-08
5.10176e-05
1.13885e-08
5.10189e-05
1.14043e-08
5.10201e-05
1.14201e-08
5.10214e-05
1.14358e-08
5.10227e-05
1.14515e-08
5.1024e-05
1.14671e-08
5.10253e-05
1.14827e-08
5.10266e-05
1.14983e-08
5.10279e-05
1.15138e-08
5.10292e-05
1.15292e-08
5.10305e-05
1.15447e-08
5.10318e-05
1.156e-08
5.10332e-05
1.15754e-08
5.10345e-05
1.15907e-08
5.10358e-05
1.1606e-08
5.10371e-05
1.16212e-08
5.10384e-05
1.16364e-08
5.10397e-05
1.16515e-08
5.1041e-05
1.16667e-08
5.10424e-05
1.16817e-08
5.10437e-05
1.16968e-08
5.1045e-05
1.17118e-08
5.10463e-05
1.17267e-08
5.10476e-05
1.17417e-08
5.1049e-05
1.17565e-08
5.10503e-05
1.17714e-08
5.10516e-05
1.17862e-08
5.1053e-05
1.1801e-08
5.10543e-05
1.18157e-08
5.10556e-05
1.18304e-08
5.1057e-05
1.18451e-08
5.10583e-05
1.18597e-08
5.10596e-05
1.18743e-08
5.1061e-05
1.18888e-08
5.10623e-05
1.19033e-08
5.10637e-05
1.19178e-08
5.1065e-05
1.19322e-08
5.10663e-05
1.19466e-08
5.10677e-05
1.1961e-08
5.1069e-05
1.19753e-08
5.10704e-05
1.19896e-08
5.10717e-05
1.20039e-08
5.10731e-05
1.20181e-08
5.10745e-05
1.20323e-08
5.10758e-05
1.20465e-08
5.10772e-05
1.20606e-08
5.10785e-05
1.20746e-08
5.10799e-05
1.20887e-08
5.10812e-05
1.21027e-08
5.10826e-05
1.21167e-08
5.1084e-05
1.21306e-08
5.10853e-05
1.21445e-08
5.10867e-05
1.21584e-08
5.10881e-05
1.21722e-08
5.10895e-05
1.2186e-08
5.10908e-05
1.21998e-08
5.10922e-05
1.22135e-08
5.10936e-05
1.22272e-08
5.1095e-05
1.22409e-08
5.10963e-05
1.22545e-08
5.10977e-05
1.22681e-08
5.10991e-05
1.22817e-08
5.11005e-05
1.22952e-08
5.11019e-05
1.23087e-08
5.11033e-05
1.23221e-08
5.11046e-05
1.23356e-08
5.1106e-05
1.2349e-08
5.11074e-05
1.23623e-08
5.11088e-05
1.23757e-08
5.11102e-05
1.2389e-08
5.11116e-05
1.24023e-08
5.1113e-05
1.24155e-08
5.11144e-05
1.24287e-08
5.11158e-05
1.24418e-08
5.11172e-05
1.24549e-08
5.11186e-05
1.2468e-08
5.112e-05
1.24811e-08
5.11214e-05
1.24941e-08
5.11228e-05
1.25071e-08
5.11242e-05
1.25201e-08
5.11257e-05
1.25331e-08
5.11271e-05
1.2546e-08
5.11285e-05
1.25589e-08
5.11299e-05
1.25717e-08
5.11313e-05
1.25845e-08
5.11327e-05
1.25973e-08
5.11342e-05
1.261e-08
5.11356e-05
1.26227e-08
5.1137e-05
1.26354e-08
5.11384e-05
1.26481e-08
5.11399e-05
1.26608e-08
5.11413e-05
1.26734e-08
5.11427e-05
1.2686e-08
5.11442e-05
1.26985e-08
5.11456e-05
1.2711e-08
5.1147e-05
1.27234e-08
5.11485e-05
1.27358e-08
5.11499e-05
1.27482e-08
5.11513e-05
1.27606e-08
5.11528e-05
1.2773e-08
5.11542e-05
1.27853e-08
5.11557e-05
1.27977e-08
5.11571e-05
1.281e-08
5.11586e-05
1.28223e-08
5.116e-05
1.28345e-08
5.11615e-05
1.28467e-08
5.11629e-05
1.28588e-08
5.11644e-05
1.28709e-08
5.11658e-05
1.28829e-08
5.11673e-05
1.2895e-08
5.11687e-05
1.29071e-08
5.11702e-05
1.29192e-08
5.11717e-05
1.29313e-08
5.11731e-05
1.29433e-08
5.11746e-05
1.29554e-08
5.11761e-05
1.29673e-08
5.11775e-05
1.29792e-08
5.1179e-05
1.29911e-08
5.11805e-05
1.30029e-08
5.11819e-05
1.30147e-08
5.11834e-05
1.30265e-08
5.11849e-05
1.30383e-08
5.11864e-05
1.30502e-08
5.11878e-05
1.30621e-08
5.11893e-05
1.30741e-08
5.11908e-05
1.3086e-08
5.11923e-05
1.30978e-08
5.11938e-05
1.31097e-08
5.11953e-05
1.31215e-08
5.11968e-05
1.31332e-08
5.11982e-05
1.3145e-08
5.11997e-05
1.31568e-08
5.12012e-05
1.31688e-08
5.12027e-05
1.31807e-08
5.12042e-05
1.31928e-08
5.12057e-05
1.3205e-08
5.12072e-05
1.32173e-08
5.12087e-05
1.32296e-08
5.12102e-05
1.3242e-08
5.12117e-05
1.32545e-08
5.12132e-05
1.32671e-08
5.12147e-05
1.32798e-08
5.12163e-05
1.32927e-08
5.12178e-05
1.33059e-08
5.12193e-05
1.33194e-08
5.12208e-05
1.33333e-08
5.12223e-05
1.33475e-08
5.12238e-05
1.33621e-08
5.12254e-05
1.33772e-08
5.12269e-05
1.33928e-08
5.12284e-05
1.3409e-08
5.12299e-05
1.34259e-08
5.12314e-05
1.34435e-08
5.1233e-05
1.3462e-08
5.12345e-05
1.34813e-08
5.12361e-05
1.35016e-08
5.12376e-05
1.35227e-08
5.12391e-05
1.35446e-08
5.12407e-05
1.35671e-08
5.12423e-05
1.359e-08
5.12439e-05
1.36124e-08
5.12454e-05
1.36342e-08
5.1247e-05
1.36534e-08
5.12487e-05
1.36716e-08
5.12502e-05
1.36816e-08
1.36924e-08
5.09123e-05
2.25996e-10
5.09123e-05
1.27053e-09
5.09127e-05
2.31731e-09
5.09133e-05
3.09991e-09
5.09142e-05
3.7114e-09
5.09152e-05
4.26139e-09
5.09162e-05
4.78559e-09
5.09173e-05
5.27485e-09
5.09185e-05
5.7143e-09
5.09197e-05
6.10043e-09
5.09209e-05
6.44006e-09
5.09222e-05
6.74218e-09
5.09234e-05
7.01255e-09
5.09247e-05
7.25396e-09
5.0926e-05
7.46868e-09
5.09273e-05
7.65962e-09
5.09286e-05
7.82987e-09
5.09299e-05
7.98208e-09
5.09312e-05
8.11837e-09
5.09325e-05
8.24054e-09
5.09338e-05
8.35025e-09
5.09351e-05
8.449e-09
5.09364e-05
8.5381e-09
5.09376e-05
8.6187e-09
5.09389e-05
8.69179e-09
5.09402e-05
8.75826e-09
5.09415e-05
8.81888e-09
5.09428e-05
8.87434e-09
5.09441e-05
8.92525e-09
5.09453e-05
8.97212e-09
5.09466e-05
9.01544e-09
5.09479e-05
9.05561e-09
5.09492e-05
9.09299e-09
5.09504e-05
9.1279e-09
5.09517e-05
9.16063e-09
5.0953e-05
9.19142e-09
5.09543e-05
9.22049e-09
5.09556e-05
9.24804e-09
5.09568e-05
9.27423e-09
5.09581e-05
9.29923e-09
5.09594e-05
9.32315e-09
5.09607e-05
9.34612e-09
5.0962e-05
9.36825e-09
5.09632e-05
9.38962e-09
5.09645e-05
9.41032e-09
5.09658e-05
9.43042e-09
5.09671e-05
9.44999e-09
5.09684e-05
9.46907e-09
5.09697e-05
9.48772e-09
5.09709e-05
9.50598e-09
5.09722e-05
9.5239e-09
5.09735e-05
9.5415e-09
5.09748e-05
9.55882e-09
5.09761e-05
9.57589e-09
5.09774e-05
9.59273e-09
5.09787e-05
9.60935e-09
5.098e-05
9.62579e-09
5.09813e-05
9.64205e-09
5.09826e-05
9.65815e-09
5.09839e-05
9.67411e-09
5.09852e-05
9.68994e-09
5.09865e-05
9.70564e-09
5.09878e-05
9.72122e-09
5.09891e-05
9.7367e-09
5.09904e-05
9.75208e-09
5.09918e-05
9.76737e-09
5.09931e-05
9.78258e-09
5.09944e-05
9.7977e-09
5.09957e-05
9.81274e-09
5.0997e-05
9.82772e-09
5.09983e-05
9.84262e-09
5.09997e-05
9.85746e-09
5.1001e-05
9.87223e-09
5.10023e-05
9.88695e-09
5.10036e-05
9.90161e-09
5.1005e-05
9.91621e-09
5.10063e-05
9.93076e-09
5.10076e-05
9.94525e-09
5.1009e-05
9.9597e-09
5.10103e-05
9.9741e-09
5.10116e-05
9.98845e-09
5.1013e-05
1.00027e-08
5.10143e-05
1.0017e-08
5.10156e-05
1.00312e-08
5.1017e-05
1.00454e-08
5.10183e-05
1.00595e-08
5.10197e-05
1.00736e-08
5.1021e-05
1.00876e-08
5.10224e-05
1.01016e-08
5.10237e-05
1.01156e-08
5.10251e-05
1.01295e-08
5.10264e-05
1.01434e-08
5.10278e-05
1.01572e-08
5.10292e-05
1.0171e-08
5.10305e-05
1.01848e-08
5.10319e-05
1.01985e-08
5.10332e-05
1.02122e-08
5.10346e-05
1.02259e-08
5.1036e-05
1.02395e-08
5.10373e-05
1.0253e-08
5.10387e-05
1.02666e-08
5.10401e-05
1.02801e-08
5.10415e-05
1.02936e-08
5.10428e-05
1.0307e-08
5.10442e-05
1.03204e-08
5.10456e-05
1.03337e-08
5.1047e-05
1.03471e-08
5.10483e-05
1.03604e-08
5.10497e-05
1.03736e-08
5.10511e-05
1.03868e-08
5.10525e-05
1.04e-08
5.10539e-05
1.04132e-08
5.10553e-05
1.04263e-08
5.10567e-05
1.04394e-08
5.10581e-05
1.04524e-08
5.10594e-05
1.04654e-08
5.10608e-05
1.04784e-08
5.10622e-05
1.04914e-08
5.10636e-05
1.05043e-08
5.1065e-05
1.05172e-08
5.10664e-05
1.053e-08
5.10678e-05
1.05428e-08
5.10693e-05
1.05556e-08
5.10707e-05
1.05684e-08
5.10721e-05
1.05811e-08
5.10735e-05
1.05938e-08
5.10749e-05
1.06064e-08
5.10763e-05
1.0619e-08
5.10777e-05
1.06316e-08
5.10791e-05
1.06442e-08
5.10806e-05
1.06567e-08
5.1082e-05
1.06692e-08
5.10834e-05
1.06817e-08
5.10848e-05
1.06941e-08
5.10862e-05
1.07065e-08
5.10877e-05
1.07189e-08
5.10891e-05
1.07312e-08
5.10905e-05
1.07435e-08
5.1092e-05
1.07558e-08
5.10934e-05
1.07681e-08
5.10948e-05
1.07803e-08
5.10963e-05
1.07925e-08
5.10977e-05
1.08046e-08
5.10991e-05
1.08168e-08
5.11006e-05
1.08289e-08
5.1102e-05
1.0841e-08
5.11034e-05
1.0853e-08
5.11049e-05
1.0865e-08
5.11063e-05
1.0877e-08
5.11078e-05
1.08889e-08
5.11092e-05
1.09008e-08
5.11107e-05
1.09127e-08
5.11121e-05
1.09246e-08
5.11136e-05
1.09364e-08
5.1115e-05
1.09482e-08
5.11165e-05
1.096e-08
5.1118e-05
1.09718e-08
5.11194e-05
1.09835e-08
5.11209e-05
1.09952e-08
5.11223e-05
1.10069e-08
5.11238e-05
1.10185e-08
5.11253e-05
1.10301e-08
5.11267e-05
1.10416e-08
5.11282e-05
1.10532e-08
5.11297e-05
1.10647e-08
5.11311e-05
1.10762e-08
5.11326e-05
1.10877e-08
5.11341e-05
1.10992e-08
5.11355e-05
1.11106e-08
5.1137e-05
1.1122e-08
5.11385e-05
1.11333e-08
5.114e-05
1.11446e-08
5.11415e-05
1.11559e-08
5.11429e-05
1.11672e-08
5.11444e-05
1.11784e-08
5.11459e-05
1.11896e-08
5.11474e-05
1.12009e-08
5.11489e-05
1.12121e-08
5.11504e-05
1.12233e-08
5.11518e-05
1.12344e-08
5.11533e-05
1.12455e-08
5.11548e-05
1.12565e-08
5.11563e-05
1.12675e-08
5.11578e-05
1.12785e-08
5.11593e-05
1.12895e-08
5.11608e-05
1.13004e-08
5.11623e-05
1.13114e-08
5.11638e-05
1.13224e-08
5.11653e-05
1.13333e-08
5.11668e-05
1.13443e-08
5.11683e-05
1.13551e-08
5.11698e-05
1.1366e-08
5.11713e-05
1.13767e-08
5.11728e-05
1.13875e-08
5.11743e-05
1.13982e-08
5.11759e-05
1.14088e-08
5.11774e-05
1.14196e-08
5.11789e-05
1.14303e-08
5.11804e-05
1.1441e-08
5.11819e-05
1.14518e-08
5.11834e-05
1.14625e-08
5.11849e-05
1.14732e-08
5.11865e-05
1.14838e-08
5.1188e-05
1.14944e-08
5.11895e-05
1.1505e-08
5.1191e-05
1.15155e-08
5.11926e-05
1.1526e-08
5.11941e-05
1.15366e-08
5.11956e-05
1.15472e-08
5.11971e-05
1.15578e-08
5.11987e-05
1.15685e-08
5.12002e-05
1.15792e-08
5.12017e-05
1.15899e-08
5.12033e-05
1.16005e-08
5.12048e-05
1.16112e-08
5.12063e-05
1.16219e-08
5.12079e-05
1.16326e-08
5.12094e-05
1.16433e-08
5.12109e-05
1.16541e-08
5.12125e-05
1.1665e-08
5.1214e-05
1.1676e-08
5.12156e-05
1.16871e-08
5.12171e-05
1.16983e-08
5.12187e-05
1.17097e-08
5.12202e-05