/*--------------------------------*- C++ -*----------------------------------*\
| =========                 |                                                 |
| \\      /  F ield         | OpenFOAM: The Open Source CFD Toolbox           |
|  \\    /   O peration     | Version:  2406                                  |
|   \\  /    A nd           | Website:  www.openfoam.com                      |
|    \\/     M anipulation  |                                                 |
\*---------------------------------------------------------------------------*/
FoamFile
{
    version     2.0;
    format      ascii;
    arch        "LSB;label=32;scalar=64";
    class       surfaceScalarField;
    location    "1.1";
    object      alphaPhi0.air;
}
// * * * * * * * * * * * * * * * * * * * * * * * * * * * * * * * * * * * * * //

dimensions      [0 3 -1 0 0 0 0];

oriented        oriented;

internalField   nonuniform List<scalar> 
12225
(
0.508998
1.70001e-06
0.508991
6.57679e-06
0.508983
8.02856e-06
0.508978
5.62253e-06
0.508973
4.67022e-06
0.508968
5.31334e-06
0.508962
5.41286e-06
0.508957
5.50654e-06
0.508951
6.09837e-06
0.508944
6.33089e-06
0.508938
6.56153e-06
0.508932
6.07935e-06
0.508926
5.65305e-06
0.508921
5.55191e-06
0.508915
5.33317e-06
0.50891
5.04479e-06
0.508905
4.74102e-06
0.508901
4.67794e-06
0.508896
4.49416e-06
0.508892
4.26096e-06
0.508888
4.29676e-06
0.508883
4.31593e-06
0.508879
4.4335e-06
0.508874
4.74202e-06
0.508869
5.18866e-06
0.508863
5.89853e-06
0.508857
6.53059e-06
0.50885
6.78525e-06
0.508843
6.77554e-06
0.508837
6.45416e-06
0.508831
5.96841e-06
0.508825
5.53006e-06
0.50882
5.20318e-06
0.508815
5.13188e-06
0.50881
5.20209e-06
0.508804
5.16786e-06
0.508799
5.30478e-06
0.508794
5.53038e-06
0.508788
5.47997e-06
0.508783
5.23634e-06
0.508778
4.87809e-06
0.508773
4.71903e-06
0.508768
5.07428e-06
0.508763
5.55506e-06
0.508757
5.8598e-06
0.508751
5.84468e-06
0.508745
5.46466e-06
0.50874
5.05542e-06
0.508735
4.8574e-06
0.50873
5.11062e-06
0.508725
5.79812e-06
0.508718
6.32514e-06
0.508712
6.04847e-06
0.508707
5.20252e-06
0.508702
4.65734e-06
0.508698
4.6385e-06
0.508693
4.81135e-06
0.508688
5.18352e-06
0.508682
5.73695e-06
0.508676
6.11885e-06
0.50867
6.0898e-06
0.508664
5.70475e-06
0.508659
5.22353e-06
0.508654
5.03916e-06
0.508648
5.34206e-06
0.508643
5.8927e-06
0.508636
6.21897e-06
0.50863
5.97425e-06
0.508625
5.34008e-06
0.50862
4.93597e-06
0.508615
4.93808e-06
0.50861
4.93809e-06
0.508605
4.74974e-06
0.508601
4.74331e-06
0.508596
5.22824e-06
0.50859
5.87577e-06
0.508584
6.02522e-06
0.508578
5.49463e-06
0.508573
4.77087e-06
0.508569
4.41298e-06
0.508564
4.5495e-06
0.508559
4.94092e-06
0.508554
5.28128e-06
0.508549
5.44175e-06
0.508543
5.49152e-06
0.508538
5.50104e-06
0.508532
5.46686e-06
0.508527
5.46789e-06
0.508521
5.59151e-06
0.508515
5.7012e-06
0.50851
5.63191e-06
0.508504
5.50422e-06
0.508499
5.51438e-06
0.508493
5.64467e-06
0.508488
5.68768e-06
0.508482
5.50202e-06
0.508477
5.26691e-06
0.508471
5.25211e-06
0.508466
5.4129e-06
0.508461
5.54386e-06
0.508455
5.60732e-06
0.508449
5.67427e-06
0.508443
5.79091e-06
0.508437
5.97933e-06
0.508431
6.17356e-06
0.508425
6.1618e-06
0.508419
5.84045e-06
0.508414
5.47224e-06
0.508408
5.38608e-06
0.508403
5.51994e-06
0.508397
5.58358e-06
0.508392
5.53752e-06
0.508386
5.56282e-06
0.508381
5.64844e-06
0.508375
5.57266e-06
0.50837
5.30089e-06
0.508365
5.13967e-06
0.508359
5.28924e-06
0.508354
5.52562e-06
0.508348
5.662e-06
0.508342
5.8234e-06
0.508336
6.05224e-06
0.50833
6.21402e-06
0.508324
6.19685e-06
0.508318
5.95104e-06
0.508312
5.59708e-06
0.508307
5.33542e-06
0.508302
5.20357e-06
0.508297
5.19502e-06
0.508291
5.36962e-06
0.508286
5.56849e-06
0.50828
5.52888e-06
0.508275
5.33329e-06
0.508269
5.26397e-06
0.508264
5.33168e-06
0.508259
5.3619e-06
0.508253
5.33225e-06
0.508248
5.35584e-06
0.508243
5.41172e-06
0.508237
5.36782e-06
0.508232
5.26092e-06
0.508227
5.20734e-06
0.508222
5.13199e-06
0.508217
4.95944e-06
0.508212
4.83608e-06
0.508207
4.88081e-06
0.508202
5.00889e-06
0.508197
5.11767e-06
0.508192
5.18758e-06
0.508187
5.17036e-06
0.508181
5.09126e-06
0.508176
5.14939e-06
0.508171
5.37782e-06
0.508165
5.51213e-06
0.50816
5.39199e-06
0.508155
5.10974e-06
0.50815
4.78129e-06
0.508146
4.57368e-06
0.508141
4.68394e-06
0.508136
5.02704e-06
0.508131
5.27737e-06
0.508125
5.23826e-06
0.50812
4.98377e-06
0.508116
4.81161e-06
0.508111
4.92516e-06
0.508105
5.21271e-06
0.5081
5.47826e-06
0.508094
5.68699e-06
0.508088
5.7937e-06
0.508083
5.74855e-06
0.508077
5.64292e-06
0.508071
5.56875e-06
0.508066
5.51038e-06
0.508061
5.38516e-06
0.508056
5.07908e-06
0.508051
4.69081e-06
0.508046
4.56718e-06
0.508041
4.81668e-06
0.508036
5.17853e-06
0.508031
5.43265e-06
0.508025
5.54376e-06
0.50802
5.57991e-06
0.508014
5.65869e-06
0.508008
5.81175e-06
0.508002
5.9294e-06
0.507996
5.88673e-06
0.507991
5.67467e-06
0.507985
5.46614e-06
0.50798
5.55757e-06
0.507974
5.96142e-06
0.507967
6.27863e-06
0.507961
6.22008e-06
0.507955
6.00311e-06
0.507949
5.92282e-06
0.507943
5.97618e-06
0.507937
6.06824e-06
0.507931
6.16773e-06
0.507925
6.23105e-06
0.507919
6.21405e-06
0.507913
6.12996e-06
0.507907
6.03188e-06
0.507901
5.98152e-06
0.507895
5.99135e-06
0.507889
5.95758e-06
0.507883
5.75272e-06
0.507877
5.39674e-06
0.507872
5.08772e-06
0.507867
5.02394e-06
0.507862
5.17351e-06
0.507857
5.34999e-06
0.507851
5.43231e-06
0.507846
5.40557e-06
0.507841
5.3254e-06
0.507835
5.34325e-06
0.50783
5.50791e-06
0.507824
5.65601e-06
0.507818
5.62954e-06
0.507813
5.44225e-06
0.507808
5.22102e-06
0.507803
5.13259e-06
0.507797
5.21313e-06
0.507792
5.28452e-06
0.507787
5.22661e-06
0.507782
5.09147e-06
0.507777
4.87431e-06
0.507772
4.53937e-06
0.507768
4.25636e-06
0.507764
4.26599e-06
0.507759
4.51402e-06
0.507755
4.70413e-06
0.50775
4.72058e-06
0.507745
4.78417e-06
0.50774
5.01771e-06
0.507735
5.1386e-06
0.50773
4.88635e-06
0.507726
4.44016e-06
0.507722
4.09738e-06
0.507718
3.95114e-06
0.507714
3.9866e-06
0.50771
4.18266e-06
0.507705
4.46097e-06
0.5077
4.72557e-06
0.507695
4.90692e-06
0.50769
4.96162e-06
0.507686
4.85868e-06
0.507681
4.61281e-06
0.507677
4.42426e-06
0.507672
4.43339e-06
0.507667
4.9526e-06
4.65705e-06
0.509003
7.04778e-08
0.509008
8.14231e-07
0.509014
1.9656e-06
0.509017
2.48018e-06
0.50902
1.95496e-06
0.509024
1.85502e-06
0.509027
2.23314e-06
0.50903
2.39423e-06
0.509034
1.85808e-06
0.509038
2.20949e-06
0.509042
3.16115e-06
0.509044
3.32947e-06
0.509048
2.61065e-06
0.509051
1.85019e-06
0.509055
1.64906e-06
0.509058
1.97182e-06
0.50906
2.34446e-06
0.509063
2.48186e-06
0.509064
2.71875e-06
0.509066
2.80395e-06
0.509067
2.73298e-06
0.509069
2.91205e-06
0.50907
2.90861e-06
0.509072
2.72607e-06
0.509075
2.52512e-06
0.509079
2.09386e-06
0.509084
1.68136e-06
0.509089
1.66489e-06
0.509093
2.12419e-06
0.509097
2.65383e-06
0.5091
2.77888e-06
0.509103
2.60004e-06
0.509106
2.52338e-06
0.509108
2.73327e-06
0.509111
2.94295e-06
0.509113
2.56197e-06
0.509117
2.05779e-06
0.50912
2.47531e-06
0.509122
3.20685e-06
0.509124
3.40968e-06
0.509126
2.98061e-06
0.509128
2.13495e-06
0.509132
1.60034e-06
0.509135
1.73805e-06
0.509139
2.27904e-06
0.509142
2.78438e-06
0.509145
2.75851e-06
0.509148
2.23776e-06
0.509151
1.80904e-06
0.509154
1.86192e-06
0.509157
2.36919e-06
0.509161
3.14984e-06
0.509163
3.69632e-06
0.509165
3.44083e-06
0.509167
2.73806e-06
0.509169
2.37541e-06
0.509171
2.42825e-06
0.509174
2.6834e-06
0.509176
3.04039e-06
0.509179
3.11923e-06
0.509183
2.64051e-06
0.509187
1.89635e-06
0.50919
1.43983e-06
0.509194
1.55012e-06
0.509197
2.04669e-06
0.509201
2.58943e-06
0.509204
3.02667e-06
0.509206
3.22289e-06
0.509209
2.93495e-06
0.509211
2.33261e-06
0.509214
2.02597e-06
0.509217
2.22288e-06
0.509219
2.49466e-06
0.509222
2.50729e-06
0.509224
2.47618e-06
0.509227
2.74551e-06
0.50923
3.17573e-06
0.509232
3.31217e-06
0.509234
2.99701e-06
0.509236
2.51389e-06
0.509239
2.19325e-06
0.509241
2.11725e-06
0.509244
2.19102e-06
0.509248
2.27816e-06
0.509251
2.3494e-06
0.509254
2.47929e-06
0.509257
2.59449e-06
0.50926
2.51602e-06
0.509263
2.38067e-06
0.509266
2.44693e-06
0.509269
2.55092e-06
0.509272
2.4322e-06
0.509275
2.24142e-06
0.509279
2.31966e-06
0.509282
2.73024e-06
0.509284
3.11182e-06
0.509286
3.10866e-06
0.509289
2.79278e-06
0.509292
2.42517e-06
0.509295
2.12385e-06
0.509299
1.96552e-06
0.509302
1.99977e-06
0.509306
2.12627e-06
0.50931
2.24129e-06
0.509314
2.42258e-06
0.509317
2.69855e-06
0.50932
2.81267e-06
0.509323
2.56618e-06
0.509326
2.20454e-06
0.50933
2.11784e-06
0.509333
2.29484e-06
0.509336
2.42349e-06
0.509339
2.42091e-06
0.509342
2.47273e-06
0.509345
2.58683e-06
0.509348
2.52093e-06
0.509351
2.28531e-06
0.509354
2.25127e-06
0.509357
2.47149e-06
0.50936
2.56961e-06
0.509364
2.43991e-06
0.509367
2.27747e-06
0.509371
2.18695e-06
0.509375
2.26415e-06
0.509379
2.5132e-06
0.509382
2.7517e-06
0.509384
2.90413e-06
0.509386
2.94835e-06
0.509389
2.76256e-06
0.509392
2.47742e-06
0.509395
2.42439e-06
0.509398
2.54938e-06
0.5094
2.53119e-06
0.509403
2.39375e-06
0.509406
2.37481e-06
0.509409
2.47404e-06
0.509412
2.51941e-06
0.509415
2.50193e-06
0.509418
2.53612e-06
0.509421
2.57815e-06
0.509423
2.5413e-06
0.509426
2.55892e-06
0.509428
2.726e-06
0.50943
2.85038e-06
0.509432
2.79081e-06
0.509435
2.65883e-06
0.509437
2.52835e-06
0.50944
2.37648e-06
0.509443
2.26478e-06
0.509446
2.2383e-06
0.509449
2.15595e-06
0.509452
2.02048e-06
0.509455
2.09921e-06
0.509458
2.45163e-06
0.509461
2.86909e-06
0.509463
3.23333e-06
0.509464
3.39597e-06
0.509465
3.12905e-06
0.509467
2.57965e-06
0.50947
2.20979e-06
0.509473
2.26058e-06
0.509476
2.57587e-06
0.509478
2.77601e-06
0.50948
2.63531e-06
0.509483
2.34989e-06
0.509486
2.20073e-06
0.509489
2.19867e-06
0.509493
2.31008e-06
0.509496
2.54061e-06
0.509499
2.70788e-06
0.509502
2.64175e-06
0.509505
2.44898e-06
0.509508
2.35813e-06
0.509511
2.50588e-06
0.509513
2.75444e-06
0.509515
2.76722e-06
0.509517
2.50105e-06
0.50952
2.26091e-06
0.509523
2.20632e-06
0.509526
2.28485e-06
0.509529
2.4115e-06
0.509532
2.45547e-06
0.509536
2.36834e-06
0.509539
2.31145e-06
0.509543
2.47631e-06
0.509546
2.8553e-06
0.509548
3.20442e-06
0.50955
3.1681e-06
0.509553
2.72135e-06
0.509557
2.32453e-06
0.509561
2.29878e-06
0.509565
2.40394e-06
0.509568
2.37123e-06
0.509572
2.30832e-06
0.509575
2.34196e-06
0.509579
2.42325e-06
0.509583
2.54159e-06
0.509586
2.72396e-06
0.50959
2.89327e-06
0.509593
2.93488e-06
0.509596
2.80519e-06
0.509599
2.56254e-06
0.509603
2.37795e-06
0.509607
2.41675e-06
0.50961
2.65599e-06
0.509612
2.87349e-06
0.509614
2.84685e-06
0.509617
2.62088e-06
0.50962
2.43649e-06
0.509623
2.41235e-06
0.509625
2.49397e-06
0.509628
2.56951e-06
0.509631
2.47052e-06
0.509634
2.16317e-06
0.509638
1.90576e-06
0.509642
1.95784e-06
0.509645
2.26348e-06
0.509648
2.57631e-06
0.50965
2.69497e-06
0.509653
2.61521e-06
0.509656
2.51044e-06
0.509658
2.46225e-06
0.509661
2.4028e-06
0.509664
2.39895e-06
0.509666
2.57888e-06
0.509668
2.77631e-06
0.50967
2.7039e-06
0.509671
2.45194e-06
0.509674
2.38162e-06
0.509676
2.52563e-06
0.509678
2.50089e-06
0.509681
2.16348e-06
0.509684
1.89959e-06
0.509687
2.00958e-06
0.509689
2.27207e-06
0.509691
2.4241e-06
0.509693
2.49808e-06
0.509694
2.54074e-06
0.509696
2.50925e-06
0.509698
2.43036e-06
0.5097
2.36342e-06
0.509702
2.28548e-06
0.509705
2.20328e-06
0.509708
2.22261e-06
0.50971
2.39784e-06
0.509712
2.60329e-06
0.509714
2.6298e-06
0.509716
2.46475e-06
0.509718
2.32328e-06
2.52844e-06
0.509001
8.14489e-08
0.509001
2.52195e-07
0.509003
7.52256e-07
0.509003
1.68652e-06
0.509003
2.19961e-06
0.509002
2.59418e-06
0.509002
2.92275e-06
0.509001
2.73823e-06
0.509001
2.42206e-06
0.509001
1.62972e-06
0.509004
9.63024e-07
0.509006
1.32626e-06
0.509006
2.10418e-06
0.509005
2.56328e-06
0.509005
2.47227e-06
0.509004
2.14197e-06
0.509005
2.06524e-06
0.509005
1.98507e-06
0.509006
2.0677e-06
0.509006
2.50167e-06
0.509007
2.29541e-06
0.509008
1.83733e-06
0.509009
1.95759e-06
0.509009
2.57848e-06
0.509008
3.1287e-06
0.509007
3.28584e-06
0.509006
3.00096e-06
0.509004
2.73989e-06
0.509004
2.67942e-06
0.509004
2.4592e-06
0.509005
2.2071e-06
0.509005
2.25099e-06
0.509005
2.42188e-06
0.509006
2.26806e-06
0.509006
2.11923e-06
0.509007
2.2329e-06
0.509007
2.22551e-06
0.509007
2.34144e-06
0.509007
2.55713e-06
0.509008
2.40758e-06
0.509009
2.06675e-06
0.50901
1.8462e-06
0.509009
1.90684e-06
0.509009
2.22528e-06
0.509009
2.36078e-06
0.509009
2.11768e-06
0.50901
1.78574e-06
0.509011
1.70449e-06
0.509011
1.96796e-06
0.50901
2.29333e-06
0.50901
2.26383e-06
0.509012
2.02496e-06
0.509013
1.99413e-06
0.509015
1.85053e-06
0.509016
1.35247e-06
0.509017
1.15548e-06
0.509018
1.64522e-06
0.509018
2.45662e-06
0.509018
3.11837e-06
0.509018
3.20917e-06
0.509018
2.62689e-06
0.509018
1.85247e-06
0.509018
1.51993e-06
0.509018
1.85281e-06
0.509017
2.48506e-06
0.509017
2.85266e-06
0.509017
2.8624e-06
0.509018
2.81044e-06
0.509018
2.66454e-06
0.509018
2.15418e-06
0.509019
1.50336e-06
0.50902
1.31235e-06
0.50902
1.76904e-06
0.509021
2.41914e-06
0.50902
2.75287e-06
0.50902
2.73082e-06
0.509021
2.58797e-06
0.509022
2.41462e-06
0.509023
2.18345e-06
0.509023
1.96667e-06
0.509023
1.86685e-06
0.509024
1.88966e-06
0.509024
1.98392e-06
0.509024
2.08081e-06
0.509024
2.13976e-06
0.509024
2.25971e-06
0.509025
2.48487e-06
0.509025
2.53461e-06
0.509025
2.23561e-06
0.509025
1.91293e-06
0.509026
1.85629e-06
0.509026
1.93757e-06
0.509027
1.9718e-06
0.509027
2.01179e-06
0.509028
2.2421e-06
0.509028
2.64012e-06
0.509028
2.90173e-06
0.509028
2.87623e-06
0.509028
2.71059e-06
0.509027
2.54216e-06
0.509027
2.4276e-06
0.509027
2.41394e-06
0.509026
2.43793e-06
0.509026
2.33425e-06
0.509026
2.13011e-06
0.509027
2.10733e-06
0.509027
2.37237e-06
0.509027
2.64473e-06
0.509027
2.66701e-06
0.509026
2.56511e-06
0.509026
2.55931e-06
0.509026
2.56485e-06
0.509026
2.40584e-06
0.509026
2.20648e-06
0.509027
2.20954e-06
0.509027
2.30879e-06
0.509027
2.2087e-06
0.509027
2.0288e-06
0.509028
2.08859e-06
0.509028
2.27971e-06
0.509028
2.34721e-06
0.509028
2.28271e-06
0.509028
2.12672e-06
0.509028
1.99303e-06
0.509029
2.04831e-06
0.509029
2.22463e-06
0.50903
2.4092e-06
0.50903
2.61491e-06
0.50903
2.67704e-06
0.50903
2.42351e-06
0.509031
2.10774e-06
0.509031
2.03409e-06
0.509032
2.08443e-06
0.509032
2.07092e-06
0.509032
2.08246e-06
0.509032
2.22493e-06
0.509033
2.37409e-06
0.509033
2.39446e-06
0.509033
2.37822e-06
0.509033
2.4067e-06
0.509033
2.35389e-06
0.509034
2.20604e-06
0.509034
2.16129e-06
0.509035
2.23555e-06
0.509035
2.24725e-06
0.509036
2.17288e-06
0.509036
2.09948e-06
0.509037
2.01538e-06
0.509037
1.9614e-06
0.509037
2.08189e-06
0.509037
2.28866e-06
0.509037
2.34127e-06
0.509036
2.29107e-06
0.509036
2.32246e-06
0.509037
2.41304e-06
0.509038
2.56498e-06
0.509038
2.84479e-06
0.509038
3.04193e-06
0.509038
2.89291e-06
0.509038
2.4702e-06
0.509038
2.06743e-06
0.509038
1.93991e-06
0.509039
2.09218e-06
0.50904
2.25377e-06
0.50904
2.27148e-06
0.50904
2.25896e-06
0.50904
2.24949e-06
0.50904
2.20197e-06
0.50904
2.22877e-06
0.50904
2.36998e-06
0.50904
2.46425e-06
0.509041
2.37621e-06
0.509041
2.13695e-06
0.509041
1.96331e-06
0.509042
2.0656e-06
0.509042
2.29332e-06
0.509043
2.34757e-06
0.509043
2.22122e-06
0.509043
2.06283e-06
0.509043
1.95774e-06
0.509044
1.97107e-06
0.509044
2.07746e-06
0.509044
2.12719e-06
0.509044
2.04792e-06
0.509045
1.93552e-06
0.509046
1.95965e-06
0.509047
2.24367e-06
0.509047
2.60826e-06
0.509047
2.65106e-06
0.509047
2.33691e-06
0.509048
2.06729e-06
0.509048
2.00926e-06
0.509048
1.96755e-06
0.509049
1.87103e-06
0.509049
1.81554e-06
0.50905
1.79897e-06
0.509051
1.79353e-06
0.509052
1.87028e-06
0.509052
2.06974e-06
0.509053
2.3272e-06
0.509053
2.5228e-06
0.509053
2.53253e-06
0.509053
2.33305e-06
0.509054
2.07543e-06
0.509054
1.97166e-06
0.509055
2.08784e-06
0.509056
2.24784e-06
0.509056
2.26461e-06
0.509056
2.1779e-06
0.509057
2.11052e-06
0.509057
2.11852e-06
0.509057
2.24942e-06
0.509058
2.4386e-06
0.509057
2.46902e-06
0.509057
2.27427e-06
0.509057
2.0489e-06
0.509057
1.98607e-06
0.509057
2.11776e-06
0.509058
2.31591e-06
0.509058
2.40522e-06
0.509058
2.39279e-06
0.509058
2.39966e-06
0.509058
2.37622e-06
0.509058
2.24711e-06
0.509059
2.18402e-06
0.509059
2.32776e-06
0.50906
2.46609e-06
0.50906
2.35118e-06
0.50906
2.13885e-06
0.50906
2.16852e-06
0.50906
2.37944e-06
0.50906
2.37839e-06
0.50906
2.12101e-06
0.50906
1.95434e-06
0.50906
2.00073e-06
0.509061
2.0978e-06
0.509061
2.18726e-06
0.509061
2.31219e-06
0.509061
2.43076e-06
0.509061
2.50446e-06
0.509061
2.58024e-06
0.509061
2.65028e-06
0.50906
2.62006e-06
0.50906
2.48305e-06
0.50906
2.38657e-06
0.50906
2.47824e-06
0.50906
2.67017e-06
0.50906
2.72959e-06
0.509059
2.67009e-06
2.50734e-06
0.509003
1.17364e-07
0.509002
1.19881e-06
0.509001
1.39642e-06
0.509001
1.81614e-06
0.509001
2.05971e-06
0.509002
1.6438e-06
0.509004
1.64854e-06
0.509005
1.58177e-06
0.509006
1.55118e-06
0.509006
1.52129e-06
0.509005
1.84184e-06
0.509004
2.24771e-06
0.509004
2.27986e-06
0.509004
2.09513e-06
0.509005
2.11869e-06
0.509005
2.0767e-06
0.509005
1.86822e-06
0.509005
1.93077e-06
0.509005
1.9213e-06
0.509005
2.15312e-06
0.509005
2.81537e-06
0.509004
2.89734e-06
0.509004
2.22884e-06
0.509005
1.46025e-06
0.509007
1.05361e-06
0.509009
1.45669e-06
0.50901
2.08255e-06
0.50901
2.06827e-06
0.509011
1.60588e-06
0.509012
1.35677e-06
0.509013
1.77387e-06
0.509013
2.27365e-06
0.509013
2.27557e-06
0.509013
1.89642e-06
0.509014
1.77362e-06
0.509014
2.15902e-06
0.509014
2.38576e-06
0.509014
2.18027e-06
0.509014
1.81336e-06
0.509015
1.38951e-06
0.509016
1.27512e-06
0.509016
1.78434e-06
0.509016
2.55482e-06
0.509015
2.95881e-06
0.509015
2.73981e-06
0.509015
2.14106e-06
0.509015
1.62989e-06
0.509015
1.58122e-06
0.509015
2.02748e-06
0.509014
2.7693e-06
0.509013
3.25188e-06
0.509012
2.95533e-06
0.509012
2.25536e-06
0.509012
1.66156e-06
0.509012
1.2565e-06
0.509012
1.36833e-06
0.509012
2.03848e-06
0.509012
2.54483e-06
0.509012
2.44191e-06
0.509014
1.93357e-06
0.509015
1.37094e-06
0.509016
1.01305e-06
0.509016
9.45808e-07
0.509017
1.1734e-06
0.509018
1.64657e-06
0.509019
2.08012e-06
0.509019
2.21541e-06
0.50902
2.20445e-06
0.50902
2.22495e-06
0.50902
2.09877e-06
0.50902
1.7423e-06
0.50902
1.53139e-06
0.50902
1.84456e-06
0.50902
2.51635e-06
0.509019
2.97231e-06
0.509019
2.88787e-06
0.509019
2.48545e-06
0.50902
2.11082e-06
0.50902
1.8603e-06
0.50902
1.70318e-06
0.509021
1.64115e-06
0.509021
1.68408e-06
0.509021
1.84367e-06
0.509021
2.09247e-06
0.509021
2.28848e-06
0.509021
2.38301e-06
0.509021
2.5454e-06
0.50902
2.74057e-06
0.50902
2.63712e-06
0.50902
2.22241e-06
0.50902
1.87796e-06
0.50902
1.83661e-06
0.50902
1.98187e-06
0.50902
2.08747e-06
0.50902
2.10981e-06
0.50902
2.14467e-06
0.509021
2.13532e-06
0.509022
1.98324e-06
0.509023
1.78411e-06
0.509024
1.66503e-06
0.509025
1.6373e-06
0.509025
1.70416e-06
0.509026
1.87715e-06
0.509026
2.00722e-06
0.509026
1.8908e-06
0.509027
1.64022e-06
0.509028
1.59922e-06
0.509028
1.85226e-06
0.509029
2.13261e-06
0.509029
2.25574e-06
0.509029
2.32947e-06
0.50903
2.42694e-06
0.50903
2.38342e-06
0.50903
2.11907e-06
0.50903
1.91287e-06
0.50903
2.00557e-06
0.50903
2.15008e-06
0.50903
2.07449e-06
0.50903
1.94402e-06
0.509031
1.90726e-06
0.509031
1.89734e-06
0.509032
1.92634e-06
0.509032
1.96363e-06
0.509032
1.93124e-06
0.509032
1.92285e-06
0.509032
1.96799e-06
0.509033
1.96764e-06
0.509033
2.0067e-06
0.509034
2.13484e-06
0.509034
2.10507e-06
0.509034
1.84603e-06
0.509035
1.66195e-06
0.509035
1.69467e-06
0.509035
1.75864e-06
0.509036
1.77065e-06
0.509036
1.86412e-06
0.509036
2.06679e-06
0.509037
2.2115e-06
0.509037
2.25912e-06
0.509037
2.33844e-06
0.509037
2.40506e-06
0.509037
2.31551e-06
0.509037
2.1673e-06
0.509037
2.11436e-06
0.509037
2.07426e-06
0.509037
1.94849e-06
0.509037
1.80279e-06
0.509038
1.64581e-06
0.509038
1.43245e-06
0.509039
1.34187e-06
0.50904
1.54762e-06
0.50904
1.8688e-06
0.509041
2.09532e-06
0.509041
2.24211e-06
0.509041
2.25702e-06
0.509041
2.09349e-06
0.509042
1.97535e-06
0.509043
2.05964e-06
0.509044
2.18567e-06
0.509044
2.15285e-06
0.509044
1.92465e-06
0.509045
1.65351e-06
0.509045
1.57741e-06
0.509046
1.70084e-06
0.509046
1.84853e-06
0.509046
2.00363e-06
0.509046
2.17783e-06
0.509046
2.24404e-06
0.509046
2.20174e-06
0.509047
2.20379e-06
0.509047
2.31429e-06
0.509047
2.46031e-06
0.509046
2.48098e-06
0.509046
2.30543e-06
0.509046
2.13148e-06
0.509046
2.12508e-06
0.509046
2.1732e-06
0.509046
2.15439e-06
0.509046
2.08093e-06
0.509046
1.9648e-06
0.509046
1.87899e-06
0.509046
1.95086e-06
0.509046
2.17082e-06
0.509046
2.38411e-06
0.509046
2.43909e-06
0.509045
2.29751e-06
0.509045
2.16171e-06
0.509046
2.27283e-06
0.509046
2.4723e-06
0.509046
2.43538e-06
0.509046
2.23575e-06
0.509045
2.13178e-06
0.509045
2.10933e-06
0.509045
2.07097e-06
0.509045
2.07666e-06
0.509044
2.14478e-06
0.509044
2.17545e-06
0.509044
2.13928e-06
0.509044
2.09809e-06
0.509044
2.12039e-06
0.509044
2.2515e-06
0.509044
2.44642e-06
0.509044
2.55442e-06
0.509044
2.4536e-06
0.509044
2.2012e-06
0.509044
2.00929e-06
0.509044
1.98604e-06
0.509044
2.01619e-06
0.509044
1.98411e-06
0.509045
1.88161e-06
0.509045
1.71929e-06
0.509046
1.59687e-06
0.509046
1.66013e-06
0.509047
1.84545e-06
0.509047
1.94636e-06
0.509047
1.88523e-06
0.509048
1.72848e-06
0.509048
1.60053e-06
0.509049
1.59834e-06
0.50905
1.66773e-06
0.50905
1.73017e-06
0.509051
1.8578e-06
0.509051
2.05549e-06
0.509051
2.1273e-06
0.509052
2.01869e-06
0.509052
1.95441e-06
0.509052
2.05024e-06
0.509053
2.08413e-06
0.509053
1.87244e-06
0.509053
1.65317e-06
0.509054
1.73471e-06
0.509054
1.95535e-06
0.509055
1.99441e-06
0.509055
1.90351e-06
0.509055
1.87667e-06
0.509055
1.88407e-06
0.509055
1.85152e-06
0.509056
1.82674e-06
0.509056
1.81891e-06
0.509057
1.76907e-06
0.509058
1.71004e-06
0.509059
1.74263e-06
0.50906
1.85487e-06
0.50906
1.89997e-06
0.509061
1.79993e-06
0.509062
1.68403e-06
0.509063
1.70825e-06
0.509063
1.81962e-06
0.509064
1.8622e-06
1.92001e-06
0.509001
2.63929e-07
0.509002
6.25389e-07
0.509002
9.15135e-07
0.509004
1.53301e-07
0.509006
1.36641e-07
0.509006
1.2367e-06
0.509006
1.79834e-06
0.509005
2.33671e-06
0.509004
2.49339e-06
0.509003
2.48708e-06
0.509003
2.04491e-06
0.509004
1.38942e-06
0.509005
1.0202e-06
0.509006
1.18127e-06
0.509007
1.79155e-06
0.509006
2.47908e-06
0.509006
2.24859e-06
0.509006
1.519e-06
0.509007
1.21478e-06
0.509008
1.24678e-06
0.509009
1.31631e-06
0.509011
1.3427e-06
0.509012
1.27446e-06
0.509012
1.65204e-06
0.509011
1.91575e-06
0.50901
1.75672e-06
0.509011
1.64109e-06
0.509011
1.79228e-06
0.50901
2.24409e-06
0.509009
2.6724e-06
0.509008
2.66422e-06
0.509008
2.39206e-06
0.509008
2.03009e-06
0.509009
1.58021e-06
0.509009
1.27952e-06
0.50901
1.6559e-06
0.50901
2.36241e-06
0.509009
2.4405e-06
0.50901
1.76835e-06
0.50901
1.04817e-06
0.50901
9.9246e-07
0.50901
1.62793e-06
0.509011
2.27576e-06
0.509011
2.2564e-06
0.509012
1.72057e-06
0.509013
1.3228e-06
0.509013
1.27427e-06
0.509014
1.40619e-06
0.509014
1.583e-06
0.509015
1.93843e-06
0.509016
2.40286e-06
0.509016
2.34374e-06
0.509017
1.76625e-06
0.509017
1.44874e-06
0.509017
1.6079e-06
0.509016
2.00469e-06
0.509016
2.46138e-06
0.509016
2.54724e-06
0.509016
2.08148e-06
0.509016
1.48248e-06
0.509017
1.17377e-06
0.509016
1.26343e-06
0.509016
1.57422e-06
0.509015
1.88007e-06
0.509015
2.17581e-06
0.509014
2.39988e-06
0.509014
2.24395e-06
0.509015
1.70618e-06
0.509016
1.26016e-06
0.509017
1.21224e-06
0.509017
1.41545e-06
0.509017
1.65982e-06
0.509017
1.93943e-06
0.509017
2.30842e-06
0.509017
2.59628e-06
0.509018
2.4969e-06
0.509018
2.01665e-06
0.509019
1.50257e-06
0.509019
1.21891e-06
0.50902
1.17107e-06
0.50902
1.24913e-06
0.509021
1.33795e-06
0.509021
1.41427e-06
0.509022
1.57522e-06
0.509022
1.79077e-06
0.509023
1.8625e-06
0.509023
1.81702e-06
0.509024
1.85328e-06
0.509025
1.88471e-06
0.509025
1.7287e-06
0.509026
1.51702e-06
0.509026
1.52688e-06
0.509026
1.83127e-06
0.509026
2.19437e-06
0.509026
2.34488e-06
0.509026
2.2938e-06
0.509026
2.15549e-06
0.509026
1.95328e-06
0.509026
1.7534e-06
0.509026
1.64383e-06
0.509026
1.58517e-06
0.509026
1.51508e-06
0.509026
1.52888e-06
0.509027
1.70802e-06
0.509027
1.86809e-06
0.509027
1.80096e-06
0.509027
1.62177e-06
0.509027
1.58789e-06
0.509027
1.70378e-06
0.509028
1.76468e-06
0.509028
1.72347e-06
0.509029
1.72199e-06
0.50903
1.75938e-06
0.50903
1.6273e-06
0.509031
1.33841e-06
0.509032
1.24721e-06
0.509032
1.43944e-06
0.509033
1.59756e-06
0.509033
1.62049e-06
0.509033
1.61752e-06
0.509034
1.57438e-06
0.509034
1.5529e-06
0.509034
1.65051e-06
0.509034
1.79482e-06
0.509034
1.96556e-06
0.509034
2.16613e-06
0.509034
2.21966e-06
0.509034
2.10347e-06
0.509034
2.05075e-06
0.509034
2.06408e-06
0.509034
1.93545e-06
0.509034
1.73657e-06
0.509034
1.70558e-06
0.509034
1.826e-06
0.509034
1.91493e-06
0.509034
1.94652e-06
0.509034
2.00886e-06
0.509034
2.04198e-06
0.509034
1.95475e-06
0.509035
1.88561e-06
0.509035
1.95776e-06
0.509035
2.01461e-06
0.509036
1.9299e-06
0.509036
1.80991e-06
0.509036
1.71057e-06
0.509037
1.57091e-06
0.509037
1.45317e-06
0.509037
1.44277e-06
0.509037
1.4285e-06
0.509037
1.37353e-06
0.509037
1.47523e-06
0.509037
1.763e-06
0.509037
2.0664e-06
0.509037
2.37176e-06
0.509037
2.64322e-06
0.509036
2.65911e-06
0.509036
2.41136e-06
0.509036
2.16059e-06
0.509036
2.05708e-06
0.509036
2.06032e-06
0.509036
2.02553e-06
0.509036
1.84138e-06
0.509036
1.62529e-06
0.509036
1.52898e-06
0.509036
1.49846e-06
0.509037
1.50909e-06
0.509037
1.6248e-06
0.509038
1.74399e-06
0.509038
1.72539e-06
0.509039
1.60884e-06
0.509039
1.52035e-06
0.50904
1.56451e-06
0.509041
1.69872e-06
0.509042
1.72085e-06
0.509042
1.60422e-06
0.509043
1.53264e-06
0.509044
1.54532e-06
0.509044
1.55821e-06
0.509045
1.56779e-06
0.509045
1.55214e-06
0.509045
1.47328e-06
0.509046
1.42119e-06
0.509047
1.5209e-06
0.509047
1.7878e-06
0.509048
2.10616e-06
0.509048
2.2329e-06
0.509048
2.06502e-06
0.509048
1.86831e-06
0.509049
1.85202e-06
0.509049
1.82782e-06
0.50905
1.6459e-06
0.509051
1.46733e-06
0.509051
1.39752e-06
0.509052
1.35967e-06
0.509053
1.3572e-06
0.509053
1.45807e-06
0.509054
1.62466e-06
0.509054
1.77287e-06
0.509055
1.85092e-06
0.509055
1.84041e-06
0.509055
1.79054e-06
0.509056
1.79115e-06
0.509057
1.87304e-06
0.509057
1.95734e-06
0.509057
1.92344e-06
0.509058
1.78757e-06
0.509058
1.69708e-06
0.509058
1.71025e-06
0.509058
1.7851e-06
0.509058
1.88315e-06
0.509058
1.89208e-06
0.509058
1.72732e-06
0.509058
1.53177e-06
0.509059
1.4926e-06
0.509059
1.60211e-06
0.509059
1.74752e-06
0.509059
1.83329e-06
0.509059
1.8398e-06
0.509059
1.85943e-06
0.509058
1.9236e-06
0.509058
1.93014e-06
0.509058
1.90305e-06
0.509058
1.994e-06
0.509058
2.15333e-06
0.509058
2.17697e-06
0.509058
2.08087e-06
0.509058
2.09668e-06
0.509058
2.25564e-06
0.509057
2.26635e-06
0.509057
2.00908e-06
0.509057
1.78992e-06
0.509057
1.81775e-06
0.509057
1.89951e-06
0.509057
1.88242e-06
0.509057
1.86661e-06
0.509057
1.89893e-06
0.509057
1.9087e-06
0.509057
1.90702e-06
0.509057
1.94398e-06
0.509057
1.95549e-06
0.509056
1.85922e-06
0.509056
1.73104e-06
0.509057
1.71873e-06
0.509057
1.82176e-06
0.509057
1.87909e-06
0.509056
1.80344e-06
0.509056
1.7094e-06
0.509057
1.71468e-06
0.509057
1.75736e-06
1.77208e-06
0.509001
1.46714e-07
0.509002
1.38857e-07
0.509002
1.67877e-07
0.509001
1.49556e-06
0.509
1.62274e-06
0.509
8.93641e-07
0.509001
7.4671e-07
0.509002
1.03679e-06
0.509004
1.189e-06
0.509005
1.36359e-06
0.509005
1.70574e-06
0.509005
1.70133e-06
0.509004
1.7908e-06
0.509003
2.08624e-06
0.509003
1.65153e-06
0.509005
1.06351e-06
0.509006
1.08176e-06
0.509005
1.78386e-06
0.509004
2.27046e-06
0.509004
1.73367e-06
0.509004
9.05313e-07
0.509005
1.0724e-06
0.509004
1.76782e-06
0.509004
2.23373e-06
0.509003
2.20713e-06
0.509003
1.5714e-06
0.509004
9.26987e-07
0.509005
9.57379e-07
0.509006
1.40744e-06
0.509007
1.91041e-06
0.509007
1.96604e-06
0.509008
1.64193e-06
0.509009
1.32801e-06
0.509009
1.19451e-06
0.509009
1.25065e-06
0.509009
1.49179e-06
0.50901
1.67755e-06
0.509011
1.53347e-06
0.509011
1.35387e-06
0.509011
1.59938e-06
0.50901
2.19375e-06
0.509009
2.42585e-06
0.509009
2.01618e-06
0.50901
1.35293e-06
0.509011
8.6275e-07
0.509011
7.83273e-07
0.509012
1.02372e-06
0.509012
1.42313e-06
0.509011
1.76799e-06
0.509011
1.86103e-06
0.509012
1.70762e-06
0.509013
1.15534e-06
0.509015
3.8321e-07
0.509016
2.14967e-07
0.509017
9.41639e-07
0.509017
1.72189e-06
0.509017
2.05508e-06
0.509018
1.9415e-06
0.509018
1.59025e-06
0.509019
1.35058e-06
0.509018
1.36805e-06
0.509018
1.54425e-06
0.509018
1.76405e-06
0.509018
1.92944e-06
0.509018
2.10183e-06
0.509018
2.33938e-06
0.509018
2.31454e-06
0.509018
1.72889e-06
0.509018
9.43856e-07
0.509019
6.29344e-07
0.509019
9.88039e-07
0.509019
1.63294e-06
0.509019
2.05929e-06
0.509019
2.12589e-06
0.50902
2.02761e-06
0.50902
1.88458e-06
0.509021
1.68166e-06
0.509021
1.46479e-06
0.509021
1.30378e-06
0.509021
1.20303e-06
0.509021
1.16596e-06
0.509021
1.18569e-06
0.509021
1.22376e-06
0.509021
1.34396e-06
0.509022
1.59457e-06
0.509022
1.74345e-06
0.509022
1.5931e-06
0.509022
1.34317e-06
0.509023
1.22046e-06
0.509024
1.18252e-06
0.509024
1.16769e-06
0.509024
1.24005e-06
0.509025
1.49879e-06
0.509025
1.8709e-06
0.509025
2.09606e-06
0.509025
2.06648e-06
0.509026
1.89197e-06
0.509026
1.66651e-06
0.509026
1.46834e-06
0.509026
1.40176e-06
0.509027
1.44678e-06
0.509027
1.42931e-06
0.509027
1.30137e-06
0.509027
1.26923e-06
0.509028
1.44991e-06
0.509028
1.66823e-06
0.509028
1.76273e-06
0.509028
1.82449e-06
0.509027
1.9715e-06
0.509027
2.09138e-06
0.509027
2.0217e-06
0.509027
1.85057e-06
0.509026
1.80244e-06
0.509026
1.83538e-06
0.509026
1.71541e-06
0.509026
1.53367e-06
0.509026
1.54385e-06
0.509025
1.63909e-06
0.509025
1.64492e-06
0.509025
1.61427e-06
0.509025
1.54482e-06
0.509026
1.44902e-06
0.509026
1.4538e-06
0.509026
1.53258e-06
0.509026
1.62484e-06
0.509027
1.79916e-06
0.509027
1.93856e-06
0.509027
1.82641e-06
0.509028
1.58391e-06
0.509028
1.44946e-06
0.509029
1.36151e-06
0.509029
1.21417e-06
0.50903
1.13292e-06
0.509031
1.22746e-06
0.509031
1.37787e-06
0.509032
1.45245e-06
0.509032
1.52286e-06
0.509033
1.63614e-06
0.509033
1.64144e-06
0.509033
1.50982e-06
0.509034
1.43697e-06
0.509034
1.46938e-06
0.509035
1.46565e-06
0.509035
1.40301e-06
0.509036
1.32911e-06
0.509036
1.18501e-06
0.509036
9.93116e-07
0.509037
9.46564e-07
0.509037
1.06529e-06
0.509038
1.17013e-06