/*--------------------------------*- C++ -*----------------------------------*\
| =========                 |                                                 |
| \\      /  F ield         | OpenFOAM: The Open Source CFD Toolbox           |
|  \\    /   O peration     | Version:  2406                                  |
|   \\  /    A nd           | Website:  www.openfoam.com                      |
|    \\/     M anipulation  |                                                 |
\*---------------------------------------------------------------------------*/
FoamFile
{
    version     2.0;
    format      ascii;
    arch        "LSB;label=32;scalar=64";
    class       surfaceScalarField;
    location    "1.1";
    object      phi;
}
// * * * * * * * * * * * * * * * * * * * * * * * * * * * * * * * * * * * * * //

dimensions      [0 3 -1 0 0 0 0];

oriented        oriented;

internalField   nonuniform List<scalar> 
12225
(
0.509011
1.60765e-06
0.509005
5.37936e-06
0.508998
7.06396e-06
0.508993
5.44541e-06
0.508988
4.60384e-06
0.508983
5.63348e-06
0.508978
5.17698e-06
0.508973
4.89366e-06
0.508967
5.6139e-06
0.508961
6.21133e-06
0.508954
6.86645e-06
0.508948
6.429e-06
0.508942
5.99627e-06
0.508935
6.11647e-06
0.50893
5.72024e-06
0.508924
5.28736e-06
0.50892
4.83996e-06
0.508915
4.38691e-06
0.508911
4.09706e-06
0.508907
4.1847e-06
0.508903
4.30826e-06
0.508898
4.31128e-06
0.508894
4.67118e-06
0.508889
5.05865e-06
0.508883
5.12209e-06
0.508878
5.43309e-06
0.508872
6.05072e-06
0.508866
6.40311e-06
0.508859
6.56576e-06
0.508852
6.73865e-06
0.508846
6.61591e-06
0.50884
5.95364e-06
0.508835
5.0781e-06
0.50883
4.78824e-06
0.508825
5.12715e-06
0.508819
5.38535e-06
0.508814
5.4265e-06
0.508808
5.48235e-06
0.508803
5.525e-06
0.508797
5.48476e-06
0.508792
5.21486e-06
0.508787
4.80034e-06
0.508783
4.70572e-06
0.508778
5.02241e-06
0.508772
5.57661e-06
0.508766
5.95807e-06
0.50876
5.72098e-06
0.508755
5.12147e-06
0.50875
4.86218e-06
0.508745
5.17297e-06
0.50874
5.64827e-06
0.508734
5.94672e-06
0.508728
5.87261e-06
0.508722
5.45074e-06
0.508717
5.04773e-06
0.508712
4.90468e-06
0.508707
4.94718e-06
0.508702
5.18401e-06
0.508697
5.57011e-06
0.508691
5.8527e-06
0.508685
5.82792e-06
0.508679
5.58688e-06
0.508674
5.3896e-06
0.508669
5.34587e-06
0.508663
5.41654e-06
0.508658
5.62466e-06
0.508652
5.91356e-06
0.508646
5.97025e-06
0.50864
5.62213e-06
0.508635
5.19577e-06
0.50863
5.05184e-06
0.508625
5.06887e-06
0.50862
4.99533e-06
0.508615
4.85508e-06
0.50861
4.86199e-06
0.508605
5.17786e-06
0.508599
5.60297e-06
0.508594
5.66691e-06
0.508588
5.29698e-06
0.508583
4.90894e-06
0.508579
4.75669e-06
0.508574
4.77154e-06
0.508569
4.968e-06
0.508564
5.33947e-06
0.508558
5.58301e-06
0.508553
5.45389e-06
0.508547
5.18824e-06
0.508542
5.19889e-06
0.508537
5.47671e-06
0.508531
5.69452e-06
0.508525
5.78943e-06
0.508519
5.8838e-06
0.508513
5.87816e-06
0.508508
5.72144e-06
0.508502
5.57128e-06
0.508497
5.42349e-06
0.508492
5.17717e-06
0.508487
5.00772e-06
0.508481
5.12408e-06
0.508476
5.38714e-06
0.50847
5.57622e-06
0.508465
5.72977e-06
0.508459
5.94322e-06
0.508453
6.14157e-06
0.508446
6.20863e-06
0.50844
6.10332e-06
0.508434
5.88365e-06
0.508429
5.68858e-06
0.508423
5.60273e-06
0.508418
5.58679e-06
0.508412
5.50997e-06
0.508407
5.31649e-06
0.508402
5.20291e-06
0.508396
5.3744e-06
0.508391
5.62445e-06
0.508385
5.5746e-06
0.50838
5.32029e-06
0.508374
5.24647e-06
0.508369
5.3783e-06
0.508363
5.54228e-06
0.508358
5.77377e-06
0.508352
6.05274e-06
0.508345
6.20299e-06
0.508339
6.18423e-06
0.508333
6.0485e-06
0.508327
5.81467e-06
0.508322
5.52521e-06
0.508317
5.27331e-06
0.508311
5.18205e-06
0.508306
5.33653e-06
0.508301
5.56692e-06
0.508295
5.60343e-06
0.508289
5.47948e-06
0.508284
5.38228e-06
0.508279
5.30782e-06
0.508274
5.2178e-06
0.508268
5.18167e-06
0.508263
5.26811e-06
0.508258
5.45092e-06
0.508252
5.52209e-06
0.508247
5.31396e-06
0.508242
5.03729e-06
0.508237
4.96631e-06
0.508232
4.99773e-06
0.508227
4.96998e-06
0.508222
4.99823e-06
0.508217
5.12965e-06
0.508212
5.16547e-06
0.508206
5.05469e-06
0.508201
4.97069e-06
0.508196
5.01441e-06
0.508191
5.16771e-06
0.508186
5.34794e-06
0.508181
5.43345e-06
0.508175
5.36883e-06
0.50817
5.20644e-06
0.508165
4.98977e-06
0.50816
4.77997e-06
0.508155
4.71491e-06
0.508151
4.84818e-06
0.508146
5.05905e-06
0.50814
5.16465e-06
0.508135
5.12186e-06
0.50813
5.05514e-06
0.508125
5.02737e-06
0.50812
4.99956e-06
0.508115
5.10881e-06
0.50811
5.52332e-06
0.508104
5.94999e-06
0.508098
5.97866e-06
0.508092
5.71956e-06
0.508086
5.48764e-06
0.508081
5.34845e-06
0.508076
5.26976e-06
0.508071
5.18679e-06
0.508066
5.02024e-06
0.508061
4.87512e-06
0.508056
4.88838e-06
0.508051
4.9872e-06
0.508046
5.12453e-06
0.50804
5.3468e-06
0.508035
5.58511e-06
0.508029
5.69739e-06
0.508023
5.69082e-06
0.508018
5.71441e-06
0.508012
5.83379e-06
0.508006
5.90137e-06
0.508
5.78893e-06
0.507994
5.70536e-06
0.507989
5.82681e-06
0.507983
5.95499e-06
0.507977
5.91586e-06
0.507971
5.9215e-06
0.507965
6.09129e-06
0.507959
6.2112e-06
0.507952
6.17738e-06
0.507946
6.13304e-06
0.50794
6.16337e-06
0.507934
6.19905e-06
0.507928
6.16266e-06
0.507922
6.06283e-06
0.507916
5.9754e-06
0.50791
5.91786e-06
0.507904
5.81223e-06
0.507898
5.65988e-06
0.507893
5.54952e-06
0.507887
5.46061e-06
0.507882
5.30923e-06
0.507877
5.13661e-06
0.507872
5.11159e-06
0.507866
5.29769e-06
0.507861
5.49239e-06
0.507855
5.45551e-06
0.50785
5.29635e-06
0.507845
5.30883e-06
0.507839
5.491e-06
0.507834
5.58214e-06
0.507828
5.51208e-06
0.507823
5.43304e-06
0.507817
5.39682e-06
0.507812
5.30102e-06
0.507807
5.14116e-06
0.507802
5.07254e-06
0.507797
5.09869e-06
0.507792
4.98895e-06
0.507787
4.68702e-06
0.507783
4.42691e-06
0.507778
4.36048e-06
0.507774
4.43241e-06
0.507769
4.56851e-06
0.507765
4.70149e-06
0.50776
4.80396e-06
0.507755
4.93155e-06
0.50775
5.01689e-06
0.507745
4.86004e-06
0.507741
4.53326e-06
0.507736
4.2944e-06
0.507732
4.1985e-06
0.507728
4.13171e-06
0.507724
4.12363e-06
0.507719
4.2963e-06
0.507715
4.58653e-06
0.50771
4.76997e-06
0.507705
4.80933e-06
0.5077
4.8278e-06
0.507696
4.7806e-06
0.507691
4.60967e-06
0.507687
4.44365e-06
0.507682
4.83168e-06
4.54658e-06
0.509018
-3.00063e-07
0.509023
5.87413e-07
0.509028
1.76042e-06
0.509031
2.26865e-06
0.509034
1.95664e-06
0.509038
1.63757e-06
0.509041
2.05576e-06
0.509043
2.58934e-06
0.509047
2.49314e-06
0.509051
1.88503e-06
0.509055
2.40934e-06
0.509058
3.24749e-06
0.509062
2.62634e-06
0.509066
1.77832e-06
0.50907
1.71716e-06
0.509074
1.86364e-06
0.509076
2.0802e-06
0.509078
2.56768e-06
0.50908
2.74895e-06
0.509081
2.58162e-06
0.509083
2.92453e-06
0.509084
3.07023e-06
0.509086
2.44924e-06
0.509089
2.29913e-06
0.509091
2.88961e-06
0.509093
2.93167e-06
0.509097
2.13051e-06
0.509102
1.43321e-06
0.509107
1.57968e-06
0.509112
2.41611e-06
0.509115
2.88948e-06
0.509119
2.67469e-06
0.509121
2.35418e-06
0.509124
2.58172e-06
0.509126
3.17856e-06
0.509128
3.01493e-06
0.509131
2.04842e-06
0.509135
1.85486e-06
0.509138
2.75513e-06
0.50914
3.52996e-06
0.509141
3.40989e-06
0.509144
2.54055e-06
0.509147
1.82389e-06
0.50915
1.7616e-06
0.509153
2.06648e-06
0.509157
2.44929e-06
0.50916
2.61567e-06
0.509163
2.35788e-06
0.509166
2.06395e-06
0.509169
2.20416e-06
0.509172
2.48926e-06
0.509175
2.58991e-06
0.509178
2.71295e-06
0.509181
2.94881e-06
0.509183
3.159e-06
0.509184
3.26156e-06
0.509186
3.05025e-06
0.509189
2.57199e-06
0.509192
2.32953e-06
0.509195
2.53183e-06
0.509198
2.79791e-06
0.509201
2.69136e-06
0.509204
2.28518e-06
0.509208
1.97909e-06
0.509211
1.87024e-06
0.509215
1.83455e-06
0.509219
2.01927e-06
0.509222
2.54995e-06
0.509225
3.03446e-06
0.509227
3.058e-06
0.509229
2.77745e-06
0.509232
2.55352e-06
0.509234
2.45602e-06
0.509237
2.36334e-06
0.50924
2.22025e-06
0.509243
2.21236e-06
0.509246
2.59598e-06
0.509248
3.15656e-06
0.50925
3.37669e-06
0.509252
3.16837e-06
0.509254
2.8223e-06
0.509256
2.41499e-06
0.509259
1.9475e-06
0.509263
1.71376e-06
0.509266
1.9274e-06
0.509269
2.34475e-06
0.509272
2.60395e-06
0.509275
2.66696e-06
0.509277
2.70992e-06
0.50928
2.7237e-06
0.509283
2.58353e-06
0.509287
2.39159e-06
0.509291
2.27426e-06
0.509294
2.21276e-06
0.509297
2.33878e-06
0.5093
2.72273e-06
0.509302
3.02597e-06
0.509304
2.93858e-06
0.509307
2.63896e-06
0.50931
2.40169e-06
0.509313
2.22989e-06
0.509317
2.09583e-06
0.509321
2.09127e-06
0.509324
2.2296e-06
0.509328
2.42666e-06
0.509332
2.60149e-06
0.509335
2.64789e-06
0.509338
2.50656e-06
0.509341
2.27352e-06
0.509345
2.17996e-06
0.509348
2.33293e-06
0.509351
2.49051e-06
0.509354
2.38315e-06
0.509357
2.21252e-06
0.50936
2.32663e-06
0.509363
2.5474e-06
0.509366
2.50264e-06
0.509369
2.35217e-06
0.509372
2.39229e-06
0.509375
2.4669e-06
0.509378
2.42866e-06
0.509382
2.39462e-06
0.509386
2.36535e-06
0.50939
2.3198e-06
0.509393
2.38601e-06
0.509397
2.58935e-06
0.509399
2.8276e-06
0.509402
2.96127e-06
0.509404
2.85273e-06
0.509407
2.59113e-06
0.50941
2.45719e-06
0.509413
2.48001e-06
0.509416
2.4791e-06
0.509419
2.4567e-06
0.509422
2.49078e-06
0.509424
2.53154e-06
0.509427
2.49033e-06
0.50943
2.37606e-06
0.509433
2.3683e-06
0.509436
2.57223e-06
0.509438
2.73265e-06
0.509441
2.6481e-06
0.509443
2.56456e-06
0.509446
2.66353e-06
0.509448
2.72118e-06
0.50945
2.62987e-06
0.509453
2.58244e-06
0.509455
2.602e-06
0.509458
2.51494e-06
0.509461
2.3304e-06
0.509463
2.15694e-06
0.509466
2.03801e-06
0.50947
2.05302e-06
0.509473
2.25416e-06
0.509476
2.55687e-06
0.509478
2.90061e-06
0.50948
3.21208e-06
0.509481
3.27356e-06
0.509483
2.98041e-06
0.509485
2.55775e-06
0.509488
2.31961e-06
0.509491
2.3693e-06
0.509494
2.53085e-06
0.509496
2.62955e-06
0.509498
2.65356e-06
0.509501
2.53256e-06
0.509504
2.19848e-06
0.509507
1.9787e-06
0.509511
2.22214e-06
0.509514
2.65485e-06
0.509517
2.82786e-06
0.50952
2.72623e-06
0.509523
2.52705e-06
0.509526
2.39284e-06
0.509528
2.45076e-06
0.509531
2.57898e-06
0.509533
2.58095e-06
0.509535
2.51352e-06
0.509538
2.44297e-06
0.509541
2.32357e-06
0.509544
2.2456e-06
0.509547
2.32622e-06
0.50955
2.45774e-06
0.509554
2.46001e-06
0.509557
2.37557e-06
0.50956
2.45538e-06
0.509563
2.80076e-06
0.509566
3.08344e-06
0.509569
3.00433e-06
0.509572
2.77021e-06
0.509575
2.63874e-06
0.509579
2.48024e-06
0.509582
2.21745e-06
0.509586
2.11213e-06
0.50959
2.25634e-06
0.509594
2.42183e-06
0.509598
2.49556e-06
0.509601
2.58108e-06
0.509605
2.73686e-06
0.509608
2.8861e-06
0.509611
2.91482e-06
0.509614
2.80334e-06
0.509618
2.65109e-06
0.509621
2.52749e-06
0.509624
2.44743e-06
0.509627
2.49112e-06
0.50963
2.67275e-06
0.509632
2.81535e-06
0.509635
2.73694e-06
0.509638
2.48471e-06
0.50964
2.32925e-06
0.509644
2.45393e-06
0.509646
2.63207e-06
0.509649
2.50426e-06
0.509652
2.14653e-06
0.509656
1.95355e-06
0.509659
2.04429e-06
0.509663
2.22531e-06
0.509666
2.39367e-06
0.509669
2.58356e-06
0.509671
2.72642e-06
0.509674
2.66194e-06
0.509676
2.4354e-06
0.509679
2.33313e-06
0.509681
2.47209e-06
0.509684
2.65042e-06
0.509685
2.68741e-06
0.509687
2.59811e-06
0.509689
2.48677e-06
0.509691
2.45865e-06
0.509693
2.47157e-06
0.509696
2.34644e-06
0.509699
2.12451e-06
0.509702
2.08235e-06
0.509704
2.21316e-06
0.509706
2.26401e-06
0.509708
2.26539e-06
0.50971
2.39015e-06
0.509712
2.54461e-06
0.509713
2.52544e-06
0.509715
2.40624e-06
0.509718
2.36776e-06
0.50972
2.35706e-06
0.509723
2.2654e-06
0.509725
2.25139e-06
0.509727
2.4597e-06
0.509729
2.65412e-06
0.509731
2.55404e-06
0.509734
2.33442e-06
2.48687e-06
0.509017
-2.79133e-08
0.509017
2.68729e-07
0.509018
6.28859e-07
0.509019
1.46991e-06
0.509019
1.8427e-06
0.509019
2.27781e-06
0.509018
2.88295e-06
0.509018
2.53182e-06
0.509018
2.22802e-06
0.509018
2.07428e-06
0.509019
1.61406e-06
0.50902
1.70003e-06
0.509021
1.87121e-06
0.509021
2.0557e-06
0.50902
2.45212e-06
0.509019
2.89528e-06
0.509019
2.38378e-06
0.50902
1.48202e-06
0.509021
1.95727e-06
0.50902
2.68257e-06
0.509021
2.20348e-06
0.509023
1.69518e-06
0.509023
1.97493e-06
0.509023
2.50583e-06
0.509023
2.7548e-06
0.509023
2.76068e-06
0.509022
2.84722e-06
0.509021
3.07612e-06
0.509019
2.9142e-06
0.509019
2.39232e-06
0.50902
2.17118e-06
0.50902
2.4975e-06
0.50902
2.75176e-06
0.50902
2.2859e-06
0.509022
1.75655e-06
0.509023
2.02509e-06
0.509022
2.47832e-06
0.509021
2.59392e-06
0.509022
2.52648e-06
0.509023
2.24164e-06
0.509024
1.99713e-06
0.509025
2.05298e-06
0.509024
2.27075e-06
0.509024
2.4283e-06
0.509024
2.23614e-06
0.509024
1.79242e-06
0.509025
1.62639e-06
0.509026
1.82913e-06
0.509026
2.07854e-06
0.509026
2.27375e-06
0.509026
2.30173e-06
0.509026
2.05491e-06
0.509027
1.82699e-06
0.509028
1.81164e-06
0.50903
1.77022e-06
0.509031
1.72276e-06
0.509033
1.8129e-06
0.509033
1.97231e-06
0.509033
2.20712e-06
0.509033
2.51055e-06
0.509033
2.68217e-06
0.509034
2.53269e-06
0.509034
2.17449e-06
0.509034
2.00966e-06
0.509033
2.19955e-06
0.509033
2.39953e-06
0.509032
2.3969e-06
0.509033
2.47976e-06
0.509033
2.75019e-06
0.509033
2.79422e-06
0.509033
2.37524e-06
0.509034
1.79637e-06
0.509035
1.51564e-06
0.509036
1.73801e-06
0.509036
2.21412e-06
0.509035
2.50992e-06
0.509036
2.57387e-06
0.509036
2.59577e-06
0.509037
2.52044e-06
0.509038
2.28254e-06
0.509039
2.10481e-06
0.509039
2.07525e-06
0.509039
1.96092e-06
0.509039
1.71935e-06
0.509039
1.66095e-06
0.50904
1.95245e-06
0.50904
2.34946e-06
0.50904
2.55063e-06
0.50904
2.56007e-06
0.50904
2.47946e-06
0.509041
2.26534e-06
0.509041
1.98909e-06
0.509041
1.8427e-06
0.509042
1.80381e-06
0.509042
1.83957e-06
0.509043
2.12254e-06
0.509043
2.60229e-06
0.509043
2.89591e-06
0.509043
2.85451e-06
0.509043
2.71246e-06
0.509042
2.63375e-06
0.509042
2.5711e-06
0.509042
2.49572e-06
0.509041
2.41009e-06
0.509042
2.30733e-06
0.509042
2.25116e-06
0.509042
2.30174e-06
0.509042
2.40644e-06
0.509042
2.43495e-06
0.509042
2.37024e-06
0.509042
2.40736e-06
0.509042
2.6158e-06
0.509041
2.68536e-06
0.509041
2.42334e-06
0.509041
2.15931e-06
0.509042
2.17126e-06
0.509042
2.21698e-06
0.509042
2.13713e-06
0.509043
2.15433e-06
0.509043
2.27947e-06
0.509043
2.30743e-06
0.509043
2.26554e-06
0.509043
2.21688e-06
0.509043
2.11973e-06
0.509044
2.0452e-06
0.509044
2.08806e-06
0.509045
2.25731e-06
0.509045
2.52062e-06
0.509045
2.69909e-06
0.509045
2.59817e-06
0.509045
2.34424e-06
0.509046
2.16167e-06
0.509046
2.03729e-06
0.509047
1.94565e-06
0.509047
1.98127e-06
0.509048
2.16527e-06
0.509048
2.37341e-06
0.509048
2.41487e-06
0.509048
2.27982e-06
0.509048
2.23861e-06
0.509048
2.37051e-06
0.509049
2.39987e-06
0.509049
2.27171e-06
0.509049
2.23633e-06
0.50905
2.28342e-06
0.50905
2.19909e-06
0.509051
2.04814e-06
0.509051
2.00868e-06
0.509052
2.04069e-06
0.509052
2.07908e-06
0.509052
2.14741e-06
0.509052
2.21307e-06
0.509052
2.25573e-06
0.509052
2.32609e-06
0.509052
2.39921e-06
0.509052
2.46851e-06
0.509053
2.63408e-06
0.509053
2.86594e-06
0.509053
2.95466e-06
0.509053
2.7761e-06
0.509053
2.4356e-06
0.509053
2.15392e-06
0.509054
2.02432e-06
0.509054
1.99438e-06
0.509055
2.10507e-06
0.509055
2.36488e-06
0.509055
2.47062e-06
0.509054
2.26021e-06
0.509055
2.0818e-06
0.509055
2.17352e-06
0.509056
2.33913e-06
0.509056
2.413e-06
0.509056
2.37192e-06
0.509056
2.22305e-06
0.509057
2.11585e-06
0.509057
2.14215e-06
0.509057
2.1702e-06
0.509058
2.16031e-06
0.509058
2.18483e-06
0.509058
2.16543e-06
0.509058
2.03466e-06
0.509059
1.93216e-06
0.509059
1.98461e-06
0.50906
2.10788e-06
0.50906
2.12028e-06
0.50906
2.02106e-06
0.509061
2.06516e-06
0.509062
2.31432e-06
0.509062
2.45021e-06
0.509063
2.35634e-06
0.509063
2.30128e-06
0.509063
2.32046e-06
0.509063
2.17118e-06
0.509064
1.89994e-06
0.509064
1.76319e-06
0.509065
1.77901e-06
0.509065
1.8127e-06
0.509066
1.84623e-06
0.509067
1.93842e-06
0.509068
2.1064e-06
0.509068
2.28641e-06
0.509069
2.38832e-06
0.509069
2.41023e-06
0.509069
2.3854e-06
0.509069
2.27029e-06
0.50907
2.08988e-06
0.50907
2.00225e-06
0.509071
2.09759e-06
0.509072
2.26402e-06
0.509072
2.29062e-06
0.509072
2.13384e-06
0.509072
2.04501e-06
0.509073
2.2139e-06
0.509073
2.42652e-06
0.509073
2.40752e-06
0.509072
2.24861e-06
0.509072
2.16866e-06
0.509072
2.15968e-06
0.509072
2.13176e-06
0.509073
2.14565e-06
0.509073
2.29591e-06
0.509074
2.47299e-06
0.509074
2.46982e-06
0.509074
2.3181e-06
0.509074
2.23328e-06
0.509074
2.27261e-06
0.509074
2.33956e-06
0.509075
2.36059e-06
0.509075
2.30572e-06
0.509075
2.24385e-06
0.509075
2.28599e-06
0.509075
2.32163e-06
0.509075
2.18422e-06
0.509075
2.03428e-06
0.509075
2.07233e-06
0.509076
2.16017e-06
0.509076
2.13629e-06
0.509076
2.13388e-06
0.509076
2.28551e-06
0.509076
2.45193e-06
0.509076
2.50369e-06
0.509076
2.55182e-06
0.509076
2.65139e-06
0.509075
2.62213e-06
0.509075
2.42459e-06
0.509075
2.35902e-06
0.509075
2.57128e-06
0.509075
2.75907e-06
0.509075
2.75379e-06
2.56217e-06
0.509017
-3.32151e-07
0.509018
8.71531e-08
0.509017
1.13062e-06
0.509017
2.01417e-06
0.509016
1.96874e-06
0.509017
1.6205e-06
0.509018
2.25088e-06
0.509018
2.09936e-06
0.509019
1.47352e-06
0.50902
1.39366e-06
0.50902
1.37257e-06
0.50902
1.82914e-06
0.509019
2.45722e-06
0.509018
2.73759e-06
0.509019
1.90434e-06
0.509021
1.27941e-06
0.509021
2.03775e-06
0.50902
2.48914e-06
0.50902
1.82372e-06
0.509021
1.53884e-06
0.509021
2.29577e-06
0.50902
3.14989e-06
0.509019
2.99272e-06
0.509019
1.81078e-06
0.509021
9.63116e-07
0.509023
1.20566e-06
0.509023
2.05949e-06
0.509024
2.27685e-06
0.509025
1.75614e-06
0.509027
1.2197e-06
0.509027
1.4549e-06
0.509028
2.26787e-06
0.509028
2.57215e-06
0.509028
2.07202e-06
0.509028
1.58623e-06
0.509028
1.95919e-06
0.509028
2.59343e-06
0.509028
2.43484e-06
0.509029
1.73925e-06
0.50903
1.21599e-06
0.509031
1.18796e-06
0.509031
1.63753e-06
0.509031
2.25401e-06
0.509031
2.65185e-06
0.509031
2.6115e-06
0.50903
2.25912e-06
0.50903
2.03965e-06
0.509029
2.1167e-06
0.509029
2.15668e-06
0.50903
2.14812e-06
0.509029
2.37514e-06
0.509029
2.64695e-06
0.509028
2.68909e-06
0.509027
2.4847e-06
0.509027
1.99755e-06
0.509027
1.53049e-06
0.509028
1.55826e-06
0.509028
1.92707e-06
0.509028
2.17362e-06
0.509028
2.14941e-06
0.509029
1.95473e-06
0.50903
1.67399e-06
0.50903
1.28527e-06
0.509032
9.41066e-07
0.509033
9.91382e-07
0.509034
1.42706e-06
0.509034
1.84639e-06
0.509035
2.11428e-06
0.509035
2.37295e-06
0.509035
2.51243e-06
0.509035
2.32653e-06
0.509035
1.92703e-06
0.509035
1.63576e-06
0.509035
1.74986e-06
0.509035
2.25127e-06
0.509035
2.68769e-06
0.509035
2.74464e-06
0.509035
2.59749e-06
0.509035
2.39475e-06
0.509035
2.04047e-06
0.509035
1.65258e-06
0.509036
1.53113e-06
0.509036
1.65102e-06
0.509036
1.76251e-06
0.509036
1.85222e-06
0.509036
2.11187e-06
0.509036
2.52817e-06
0.509036
2.81235e-06
0.509035
2.8103e-06
0.509035
2.63584e-06
0.509035
2.34309e-06
0.509035
1.99279e-06
0.509035
1.82947e-06
0.509035
1.89366e-06
0.509035
1.9315e-06
0.509035
1.9051e-06
0.509036
1.98136e-06
0.509036
2.08865e-06
0.509037
2.03705e-06
0.509038
1.88859e-06
0.509039
1.81417e-06
0.50904
1.82191e-06
0.50904
1.86223e-06
0.509041
1.90382e-06
0.509041
1.87039e-06
0.509042
1.74963e-06
0.509042
1.66376e-06
0.509043
1.73996e-06
0.509044
1.92916e-06
0.509044
2.03907e-06
0.509044
2.05367e-06
0.509045
2.1861e-06
0.509045
2.41208e-06
0.509045
2.39698e-06
0.509045
2.12879e-06
0.509045
1.99466e-06
0.509045
2.05112e-06
0.509045
2.03503e-06
0.509046
1.98522e-06
0.509046
2.02288e-06
0.509046
2.01999e-06
0.509047
1.95685e-06
0.509047
1.9472e-06
0.509047
1.96179e-06
0.509047
1.95568e-06
0.509047
1.94449e-06
0.509047
1.92706e-06
0.509048
1.97114e-06
0.509049
2.09493e-06
0.509049
2.11582e-06
0.50905
1.97036e-06
0.50905
1.8368e-06
0.50905
1.78003e-06
0.50905
1.71777e-06
0.509051
1.65689e-06
0.509051
1.69683e-06
0.509052
1.91198e-06
0.509052
2.18364e-06
0.509052
2.26739e-06
0.509052
2.21049e-06
0.509052
2.26293e-06
0.509052
2.35488e-06
0.509052
2.27927e-06
0.509052
2.16422e-06
0.509052
2.16998e-06
0.509052
2.12893e-06
0.509052
1.92189e-06
0.509053
1.69821e-06
0.509053
1.54711e-06
0.509054
1.45666e-06
0.509054
1.48349e-06
0.509055
1.63403e-06
0.509055
1.83054e-06
0.509056
2.05301e-06
0.509056
2.22986e-06
0.509056
2.23323e-06
0.509057
2.11473e-06
0.509057
2.05249e-06
0.509058
2.09113e-06
0.509059
2.11852e-06
0.509059
2.03581e-06
0.50906
1.89172e-06
0.50906
1.78221e-06
0.50906
1.66515e-06
0.509061
1.57196e-06
0.509061
1.74073e-06
0.509062
2.11977e-06
0.509062
2.31097e-06
0.509062
2.25141e-06
0.509061
2.20226e-06
0.509062
2.22529e-06
0.509062
2.27968e-06
0.509062
2.36767e-06
0.509062
2.39139e-06
0.509061
2.32729e-06
0.509061
2.28566e-06
0.509061
2.23323e-06
0.509061
2.10557e-06
0.509061
2.02108e-06
0.509062
2.03003e-06
0.509062
2.01198e-06
0.509062
1.93996e-06
0.509062
1.9524e-06
0.509062
2.14084e-06
0.509061
2.36988e-06
0.509061
2.40158e-06
0.509061
2.29306e-06
0.509061
2.32068e-06
0.509061
2.421e-06
0.509061
2.33562e-06
0.509061
2.18515e-06
0.509061
2.20432e-06
0.509061
2.26102e-06
0.509061
2.17991e-06
0.50906
2.07791e-06
0.50906
2.07963e-06
0.50906
2.12512e-06
0.509059
2.14215e-06
0.509059
2.1366e-06
0.509059
2.15723e-06
0.509059
2.2274e-06
0.509059
2.29334e-06
0.509059
2.32896e-06
0.509059
2.38438e-06
0.509059
2.42072e-06
0.509059
2.32145e-06
0.509059
2.10112e-06
0.509059
1.92131e-06
0.509059
1.91037e-06
0.50906
1.99016e-06
0.50906
1.9334e-06
0.50906
1.71657e-06
0.509061
1.6066e-06
0.509062
1.71386e-06
0.509062
1.82706e-06
0.509063
1.81434e-06
0.509063
1.7861e-06
0.509063
1.80106e-06
0.509064
1.75621e-06
0.509064
1.61952e-06
0.509065
1.55927e-06
0.509066
1.7094e-06
0.509066
1.93625e-06
0.509066
2.05114e-06
0.509067
2.07257e-06
0.509067
2.07547e-06
0.509067
2.05969e-06
0.509067
2.02575e-06
0.509068
1.94161e-06
0.509068
1.79722e-06
0.509069
1.75102e-06
0.509069
1.86905e-06
0.50907
1.93924e-06
0.50907
1.86273e-06
0.50907
1.83541e-06
0.50907
1.92652e-06
0.50907
1.94973e-06
0.509071
1.85078e-06
0.509071
1.79682e-06
0.509072
1.82517e-06
0.509072
1.78151e-06
0.509073
1.68573e-06
0.509074
1.75415e-06
0.509075
1.9358e-06
0.509075
1.92071e-06
0.509076
1.71557e-06
0.509077
1.64176e-06
0.509078
1.76299e-06
0.509079
1.84202e-06
1.91131e-06
0.509014
3.82257e-07
0.509014
3.75638e-07
0.509015
1.14645e-07
0.509017
-1.16315e-07
0.509019
2.11411e-07
0.50902
4.23202e-07
0.509021
9.98115e-07
0.509021
2.13737e-06
0.50902
2.57509e-06
0.509019
2.26181e-06
0.509019
2.00853e-06
0.509019
1.83841e-06
0.50902
1.11722e-06
0.509022
7.3576e-07
0.509022
1.72592e-06
0.509021
2.66301e-06
0.509021
2.41067e-06
0.509021
1.62402e-06
0.509022
1.25014e-06
0.509022
1.62973e-06
0.509022
1.72948e-06
0.509025
1.03454e-06
0.509027
6.47315e-07
0.509027
1.30681e-06
0.509026
2.31918e-06
0.509025
2.40183e-06
0.509025
1.64809e-06
0.509027
1.04762e-06
0.509027
1.57956e-06
0.509025
2.73592e-06
0.509024
3.02736e-06
0.509023
2.39612e-06
0.509024
1.76673e-06
0.509025
1.63732e-06
0.509025
1.74078e-06
0.509025
1.90151e-06
0.509025
2.16025e-06
0.509025
2.12187e-06
0.509025
1.73589e-06
0.509025
1.48205e-06
0.509025
1.55112e-06
0.509025
1.72682e-06
0.509025
1.77416e-06
0.509026
1.65872e-06
0.509027
1.56288e-06
0.509028
1.59591e-06
0.509028
1.72013e-06
0.509028
1.84645e-06
0.509029
1.72189e-06
0.50903
1.42367e-06
0.50903
1.482e-06
0.509031
1.9129e-06
0.509032
2.22553e-06
0.509032
2.26173e-06
0.509032
2.08639e-06
0.509032
1.83285e-06
0.509031
1.81073e-06
0.509031
2.01803e-06
0.509031
2.0931e-06
0.509031
1.91287e-06
0.509032
1.69653e-06
0.509032
1.65044e-06
0.509031
1.67384e-06
0.509031
1.56769e-06
0.50903
1.49463e-06
0.50903
1.74048e-06
0.50903
2.10292e-06
0.50903
2.17514e-06
0.50903
1.97006e-06
0.509031
1.71716e-06
0.509032
1.53368e-06
0.509032
1.49395e-06
0.509032
1.57911e-06
0.509032
1.7534e-06
0.509032
2.0861e-06
0.509033
2.41434e-06
0.509033
2.39492e-06
0.509033
2.07931e-06
0.509034
1.78697e-06
0.509035
1.53053e-06
0.509035
1.20345e-06
0.509036
9.84094e-07
0.509036
1.05767e-06
0.509037
1.30256e-06
0.509037
1.50713e-06
0.509037
1.67385e-06
0.509038
1.91078e-06
0.509039
2.1121e-06
0.509039
2.09521e-06
0.50904
1.93776e-06
0.509041
1.76259e-06
0.509041
1.56217e-06
0.509041
1.49246e-06
0.509042
1.7299e-06
0.509041
2.06223e-06
0.509041
2.1945e-06
0.509041
2.16911e-06
0.509041
2.12157e-06
0.509041
2.01747e-06
0.509041
1.84986e-06
0.509041
1.72991e-06
0.509041
1.68825e-06
0.509041
1.68403e-06
0.509042
1.71692e-06
0.509042
1.75207e-06
0.509042
1.71278e-06
0.509042
1.59801e-06
0.509042
1.52737e-06
0.509042
1.61265e-06
0.509043
1.74637e-06
0.509043
1.71958e-06
0.509044
1.61366e-06
0.509044
1.65856e-06
0.509045
1.71959e-06
0.509046
1.54292e-06
0.509046
1.34191e-06
0.509047
1.39009e-06
0.509047
1.50735e-06
0.509048
1.5479e-06
0.509048
1.61831e-06
0.509049
1.66509e-06
0.509049
1.60866e-06
0.509049
1.58591e-06
0.50905
1.68325e-06
0.50905
1.85857e-06
0.50905
2.05673e-06
0.509049
2.16405e-06
0.509049
2.14691e-06
0.509049
2.1282e-06
0.509049
2.10257e-06
0.509049
1.96239e-06
0.509049
1.79851e-06
0.509049
1.75767e-06
0.509049
1.81528e-06
0.509049
1.86869e-06
0.509049
1.862e-06
0.509049
1.87577e-06
0.509049
1.99894e-06
0.509049
2.07605e-06
0.509049
1.97085e-06
0.50905
1.89014e-06
0.50905
1.9715e-06
0.50905
1.9946e-06
0.509051
1.85834e-06
0.509051
1.75589e-06
0.509052
1.72257e-06
0.509052
1.61798e-06
0.509052
1.47319e-06
0.509052
1.38479e-06
0.509052
1.35038e-06
0.509052
1.41457e-06
0.509052
1.60641e-06
0.509052
1.84138e-06
0.509052
2.09873e-06
0.509052
2.39426e-06
0.509052
2.59189e-06
0.509051
2.56425e-06
0.509051
2.38969e-06
0.509051
2.22038e-06
0.509051
2.11118e-06
0.509051
2.00835e-06
0.509051
1.88808e-06
0.509051
1.8268e-06
0.509051
1.77045e-06
0.509051
1.56072e-06
0.509051
1.36489e-06
0.509052
1.46438e-06
0.509053
1.69214e-06
0.509053
1.75988e-06
0.509053
1.71283e-06
0.509054
1.64706e-06
0.509055
1.58072e-06
0.509056
1.58546e-06
0.509056
1.62341e-06
0.509057
1.60084e-06
0.509058
1.59719e-06
0.509058
1.64212e-06
0.509059
1.60864e-06
0.509059
1.51664e-06
0.50906
1.49767e-06
0.50906
1.53102e-06
0.509061
1.51575e-06
0.509061
1.47062e-06
0.509062
1.54791e-06
0.509062
1.8297e-06
0.509063
2.09421e-06
0.509063
2.10256e-06
0.509063
2.0166e-06
0.509064
2.02528e-06
0.509064
1.95134e-06
0.509064
1.69927e-06
0.509065
1.50975e-06
0.509066
1.48255e-06
0.509067
1.45067e-06
0.509067
1.37746e-06
0.509068
1.38322e-06
0.509069
1.4932e-06
0.509069
1.63524e-06
0.50907
1.74076e-06
0.50907
1.79934e-06
0.50907
1.85557e-06
0.509071
1.89519e-06
0.509071
1.86197e-06
0.509072
1.81519e-06
0.509072
1.84372e-06
0.509073
1.89567e-06
0.509073
1.85997e-06
0.509073
1.73043e-06
0.509073
1.64968e-06
0.509074
1.75296e-06
0.509074
1.91295e-06
0.509074
1.87266e-06
0.509073
1.67053e-06
0.509074
1.56687e-06
0.509074
1.60562e-06
0.509074
1.63733e-06
0.509074
1.64831e-06
0.509074
1.7407e-06
0.509074
1.89397e-06
0.509074
1.95933e-06
0.509073
1.90143e-06
0.509073
1.87694e-06
0.509073
1.96315e-06
0.509073
2.05059e-06
0.509073
2.08458e-06
0.509073
2.11033e-06
0.509073
2.1416e-06
0.509073
2.19656e-06
0.509073
2.24141e-06
0.509072
2.14165e-06
0.509072
1.94169e-06
0.509072
1.86998e-06
0.509072
1.92023e-06
0.509072
1.88772e-06
0.509072
1.80258e-06
0.509072
1.83683e-06
0.509072
1.93457e-06
0.509072
1.93041e-06
0.509072
1.87887e-06
0.509072
1.92552e-06
0.509072
1.96763e-06
0.509072
1.83395e-06
0.509072
1.68111e-06
0.509072
1.75449e-06
0.509072
1.92228e-06
0.509072
1.89218e-06
0.509072
1.73544e-06
0.509072
1.69686e-06
0.509072
1.75268e-06
1.78159e-06
0.50902
2.59206e-07
0.50902
9.09139e-07
0.509019
7.42265e-07
0.509018
1.18623e-06
0.509017
1.47453e-06
0.509016
1.17948e-06
0.509016
6.55452e-07
0.509018
5.28166e-07
0.509019
1.46015e-06
0.509019
2.32604e-06
0.509019
1.89503e-06
0.50902
1.06276e-06
0.509019
1.51427e-06
0.509018
2.44397e-06
0.509017
1.96946e-06
0.509019
8.06356e-07
0.509021
4.93734e-07
0.509021
1.66701e-06
0.50902
2.71299e-06
0.509019
2.12877e-06
0.50902
8.86093e-07
0.50902
6.12423e-07
0.509019
1.66491e-06
0.509018
2.56603e-06
0.509018
2.22788e-06
0.509019
1.10899e-06
0.50902
6.64193e-07
0.50902
1.21995e-06
0.50902
1.91608e-06
0.509021
2.0817e-06
0.509022
1.57473e-06
0.509023
1.09192e-06
0.509024
1.28657e-06
0.509024
1.83152e-06
0.509023
1.94845e-06
0.509024
1.38265e-06
0.509025
8.84338e-07
0.509026
1.01272e-06
0.509027
1.51025e-06
0.509026
2.01072e-06
0.509025
2.35717e-06
0.509025
2.30003e-06
0.509025
1.80271e-06
0.509025
1.28551e-06
0.509025
1.1878e-06
0.509026
1.34907e-06
0.509026
1.32536e-06
0.509027
1.20653e-06
0.509027
1.26605e-06
0.509027
1.42099e-06
0.509027
1.55329e-06
0.509027
1.51346e-06
0.509028
1.16233e-06
0.50903
7.94218e-07
0.509031
8.17947e-07
0.509032
1.09131e-06
0.509032
1.32494e-06
0.509033
1.51849e-06
0.509033
1.68424e-06
0.509033
1.76823e-06
0.509033
1.74001e-06
0.509033
1.67985e-06
0.509033
1.66789e-06
0.509033
1.64478e-06
0.509033
1.63526e-06
0.509033
1.84878e-06
0.509033
2.19343e-06
0.509033
2.21883e-06
0.509033
1.80284e-06
0.509034
1.29135e-06
0.509034
1.02729e-06
0.509034
1.14969e-06
0.509034
1.50146e-06
0.509034
1.74082e-06
0.509035
1.83312e-06
0.509035
1.94589e-06
0.509036
1.9818e-06
0.509036
1.81412e-06
0.509036
1.62065e-06
0.509036
1.50356e-06
0.509036
1.29567e-06
0.509036
9.85397e-07
0.509036
8.32948e-07
0.509037
9.94721e-07
0.509037
1.32248e-06
0.509037
1.58664e-06
0.509037
1.7493e-06
0.509037
1.80772e-06
0.509038
1.64679e-06
0.509038
1.35006e-06
0.509039
1.18173e-06
0.509039
1.15643e-06
0.50904
1.19408e-06
0.50904
1.39961e-06
0.50904
1.7398e-06
0.50904
1.94419e-06
0.509041
1.92545e-06
0.509041
1.84653e-06
0.509041
1.78096e-06
0.509041
1.68127e-06
0.509042
1.57478e-06
0.509042
1.49884e-06
0.509042
1.42639e-06
0.509042
1.37622e-06
0.509043
1.40345e-06
0.509043
1.49105e-06
0.509043
1.55703e-06
0.509043
1.58434e-06
0.509043
1.70023e-06
0.509043
1.94969e-06
0.509042
2.09161e-06
0.509042
1.95768e-06
0.509042
1.79732e-06
0.509042
1.82009e-06
0.509041
1.80526e-06
0.509041
1.64921e-06
0.509041
1.59358e-06
0.509041
1.65083e-06
0.509041
1.64366e-06
0.509041
1.62797e-06
0.509041
1.64504e-06
0.509041
1.5872e-06
0.509041
1.48431e-06
0.509041
1.44504e-06
0.509041
1.51121e-06
0.509042
1.69659e-06
0.509042
1.87907e-06
0.509042
1.88022e-06
0.509043
1.75386e-06
0.509043
1.62907e-06
0.509044
1.46329e-06
0.509044
1.25488e-06
0.509045
1.13125e-06
0.509045
1.16345e-06
0.509046
1.30425e-06
0.509046
1.41031e-06
0.509047
1.41989e-06
0.509047
1.48357e-06
0.509048
1.62697e-06
0.509048
1.62822e-06
0.509049
1.48739e-06
0.509049
1.4546e-06
0.50905
1.51813e-06
0.50905
1.4704e-06
0.50905
1.34474e-06
0.509051
1.2617e-06
0.509051
1.16617e-06
0.509052
1.04842e-06
0.509052
1.00855e-06
0.509052