/*--------------------------------*- C++ -*----------------------------------*\
| =========                 |                                                 |
| \\      /  F ield         | OpenFOAM: The Open Source CFD Toolbox           |
|  \\    /   O peration     | Version:  2406                                  |
|   \\  /    A nd           | Website:  www.openfoam.com                      |
|    \\/     M anipulation  |                                                 |
\*---------------------------------------------------------------------------*/
FoamFile
{
    version     2.0;
    format      ascii;
    arch        "LSB;label=32;scalar=64";
    class       volVectorField;
    location    "1.1";
    object      U;
}
// * * * * * * * * * * * * * * * * * * * * * * * * * * * * * * * * * * * * * //

dimensions      [0 1 -1 0 0 0 0];

internalField   nonuniform List<vector> 
6250
(
(50.4124 8.86991e-05 0)
(85.1512 0.000462065 0)
(72.9709 0.000778124 0)
(60.3713 0.000833312 0)
(59.6474 0.000794945 0)
(63.0997 0.00084013 0)
(64.6004 0.000823241 0)
(64.1478 0.000793254 0)
(63.5329 0.000819036 0)
(63.4311 0.000882477 0)
(63.5736 0.000960059 0)
(63.6569 0.000950899 0)
(63.6464 0.000911206 0)
(63.6169 0.000928103 0)
(63.6079 0.000952786 0)
(63.6128 0.000944202 0)
(63.6165 0.000874545 0)
(63.6161 0.000772627 0)
(63.6143 0.000673034 0)
(63.6133 0.000609597 0)
(63.6129 0.000580423 0)
(63.6126 0.000569446 0)
(63.6121 0.000608814 0)
(63.6114 0.000694458 0)
(63.6107 0.000783026 0)
(63.6101 0.000890225 0)
(63.6094 0.00102406 0)
(63.6086 0.00113441 0)
(63.6078 0.0011926 0)
(63.607 0.00120222 0)
(63.6061 0.0011645 0)
(63.6053 0.00108273 0)
(63.6046 0.000981039 0)
(63.6041 0.000907211 0)
(63.6034 0.000872276 0)
(63.6027 0.000853221 0)
(63.6021 0.000861396 0)
(63.6014 0.000903923 0)
(63.6007 0.000935277 0)
(63.6 0.000923777 0)
(63.5993 0.000874668 0)
(63.5987 0.000812569 0)
(63.5982 0.00077819 0)
(63.5976 0.000791697 0)
(63.5969 0.000844006 0)
(63.5961 0.000899645 0)
(63.5954 0.00090649 0)
(63.5947 0.000863778 0)
(63.5941 0.000831917 0)
(63.5935 0.000849705 0)
(63.5928 0.000897275 0)
(63.592 0.000934896 0)
(63.5913 0.000927533 0)
(63.5906 0.000864185 0)
(63.59 0.000790176 0)
(63.5894 0.000757252 0)
(63.5887 0.000767378 0)
(63.5881 0.000809491 0)
(63.5875 0.000882939 0)
(63.5867 0.00096843 0)
(63.586 0.00102922 0)
(63.5853 0.00104641 0)
(63.5846 0.00103281 0)
(63.5839 0.00100959 0)
(63.5832 0.000992313 0)
(63.5826 0.000999547 0)
(63.5819 0.00103285 0)
(63.5811 0.00104926 0)
(63.5804 0.00100689 0)
(63.5797 0.000930382 0)
(63.579 0.000874391 0)
(63.5784 0.000845007 0)
(63.5778 0.000814144 0)
(63.5772 0.000785442 0)
(63.5766 0.000796198 0)
(63.576 0.000862087 0)
(63.5753 0.000938238 0)
(63.5746 0.000953028 0)
(63.5738 0.000891683 0)
(63.5732 0.000814108 0)
(63.5726 0.000778675 0)
(63.572 0.000793307 0)
(63.5714 0.000840795 0)
(63.5708 0.000897741 0)
(63.5701 0.000930809 0)
(63.5694 0.000919949 0)
(63.5687 0.000884861 0)
(63.5681 0.000867361 0)
(63.5674 0.000883429 0)
(63.5667 0.000906834 0)
(63.566 0.00091273 0)
(63.5653 0.000909346 0)
(63.5646 0.000912836 0)
(63.5638 0.00092741 0)
(63.5631 0.000947 0)
(63.5624 0.0009518 0)
(63.5618 0.000932338 0)
(63.5611 0.000917429 0)
(63.5605 0.000942041 0)
(63.5599 0.000999734 0)
(63.5591 0.00105748 0)
(63.5584 0.00109886 0)
(63.5577 0.00112674 0)
(63.557 0.0011438 0)
(63.5562 0.00114887 0)
(63.5554 0.00113882 0)
(63.5547 0.00111282 0)
(63.554 0.00108246 0)
(63.5533 0.00106708 0)
(63.5526 0.0010695 0)
(63.5518 0.00106404 0)
(63.5512 0.00102647 0)
(63.5505 0.000974215 0)
(63.5499 0.000947055 0)
(63.5492 0.000946969 0)
(63.5485 0.00093902 0)
(63.5478 0.000914819 0)
(63.5471 0.000900855 0)
(63.5465 0.000904444 0)
(63.5458 0.000915294 0)
(63.5451 0.0009407 0)
(63.5443 0.000984749 0)
(63.5436 0.00103039 0)
(63.5428 0.00106336 0)
(63.542 0.00107524 0)
(63.5413 0.00105718 0)
(63.5406 0.00101598 0)
(63.5399 0.000973351 0)
(63.5392 0.000952402 0)
(63.5386 0.000968213 0)
(63.5379 0.00100632 0)
(63.5372 0.00102598 0)
(63.5365 0.00101158 0)
(63.5359 0.000989012 0)
(63.5352 0.00098127 0)
(63.5345 0.000983799 0)
(63.5339 0.000982923 0)
(63.5332 0.000976764 0)
(63.5326 0.000971801 0)
(63.5319 0.000961934 0)
(63.5312 0.000935431 0)
(63.5305 0.000904487 0)
(63.5299 0.000889122 0)
(63.5293 0.000882501 0)
(63.5287 0.000872118 0)
(63.528 0.000868568 0)
(63.5274 0.000879857 0)
(63.5268 0.000893018 0)
(63.5261 0.000902084 0)
(63.5255 0.000917605 0)
(63.5249 0.000943904 0)
(63.5242 0.000976163 0)
(63.5236 0.00100862 0)
(63.5229 0.00102965 0)
(63.5222 0.00102683 0)
(63.5216 0.000997057 0)
(63.5209 0.000945454 0)
(63.5203 0.00089048 0)
(63.5197 0.000864578 0)
(63.5191 0.000884587 0)
(63.5185 0.000925604 0)
(63.5179 0.000942792 0)
(63.5172 0.000917647 0)
(63.5166 0.000877443 0)
(63.516 0.000859964 0)
(63.5153 0.000870799 0)
(63.5147 0.000897596 0)
(63.5141 0.000934228 0)
(63.5133 0.000961322 0)
(63.5126 0.000954949 0)
(63.5118 0.000929624 0)
(63.5111 0.000917935 0)
(63.5105 0.000921098 0)
(63.5098 0.000917512 0)
(63.5092 0.000890818 0)
(63.5085 0.0008418 0)
(63.5079 0.000795237 0)
(63.5073 0.000779425 0)
(63.5067 0.000796274 0)
(63.506 0.00083039 0)
(63.5054 0.000870268 0)
(63.5047 0.000904985 0)
(63.504 0.000926207 0)
(63.5033 0.000938348 0)
(63.5026 0.000950315 0)
(63.5019 0.000958165 0)
(63.5011 0.000942804 0)
(63.5004 0.000899157 0)
(63.4997 0.000864896 0)
(63.499 0.000882347 0)
(63.4982 0.000934606 0)
(63.4974 0.000973947 0)
(63.4967 0.000990276 0)
(63.496 0.000999824 0)
(63.4952 0.00100124 0)
(63.4944 0.000988565 0)
(63.4937 0.000974245 0)
(63.4929 0.000970669 0)
(63.4921 0.000975007 0)
(63.4913 0.000981623 0)
(63.4906 0.000991861 0)
(63.4898 0.00100944 0)
(63.4891 0.00103009 0)
(63.4884 0.00103953 0)
(63.4876 0.00102714 0)
(63.4869 0.000995342 0)
(63.4863 0.000954647 0)
(63.4856 0.000920911 0)
(63.4849 0.000912501 0)
(63.4843 0.000937558 0)
(63.4836 0.00098466 0)
(63.483 0.00102661 0)
(63.4823 0.00104379 0)
(63.4816 0.00105108 0)
(63.4809 0.00107887 0)
(63.4803 0.00112043 0)
(63.4796 0.00113465 0)
(63.4789 0.00110654 0)
(63.4782 0.00106641 0)
(63.4775 0.0010461 0)
(63.4768 0.00104713 0)
(63.4762 0.0010563 0)
(63.4756 0.00106812 0)
(63.4749 0.00107538 0)
(63.4743 0.0010561 0)
(63.4737 0.000998936 0)
(63.4731 0.000928175 0)
(63.4726 0.000879635 0)
(63.472 0.000865792 0)
(63.4715 0.000872489 0)
(63.4709 0.000880642 0)
(63.4703 0.00089281 0)
(63.4697 0.000926597 0)
(63.4691 0.000972841 0)
(63.4684 0.000992983 0)
(63.4678 0.000969553 0)
(63.4673 0.000924601 0)
(63.4668 0.000880139 0)
(63.4662 0.000840202 0)
(63.4657 0.000814418 0)
(63.4652 0.00082318 0)
(63.4647 0.000868494 0)
(63.4641 0.000927448 0)
(63.4635 0.000977849 0)
(63.4629 0.00100731 0)
(63.4623 0.00100028 0)
(63.4617 0.000956016 0)
(63.4611 0.000898875 0)
(63.4606 0.000903519 0)
(63.4597 0.000889855 0)
(50.413 5.66422e-05 0)
(85.1526 0.000363983 0)
(72.9735 0.000650067 0)
(60.376 0.000647395 0)
(59.6526 0.000510084 0)
(63.106 0.00047115 0)
(64.608 0.000443056 0)
(64.1559 0.000458491 0)
(63.5423 0.000514022 0)
(63.4417 0.000555215 0)
(63.5855 0.000652365 0)
(63.6705 0.000690342 0)
(63.6606 0.000605807 0)
(63.6326 0.000504302 0)
(63.6249 0.000431871 0)
(63.6309 0.000400379 0)
(63.6357 0.000385094 0)
(63.6361 0.000399908 0)
(63.635 0.000425516 0)
(63.6347 0.000448696 0)
(63.6351 0.000496449 0)
(63.6354 0.000529313 0)
(63.6356 0.000512875 0)
(63.636 0.000480825 0)
(63.6362 0.000457062 0)
(63.6365 0.000428287 0)
(63.6369 0.00038947 0)
(63.6375 0.000354767 0)
(63.6381 0.000364022 0)
(63.6387 0.000430899 0)
(63.6392 0.000478905 0)
(63.6397 0.000449079 0)
(63.64 0.000378272 0)
(63.6403 0.000372135 0)
(63.6406 0.000447646 0)
(63.6408 0.000478293 0)
(63.6411 0.000419685 0)
(63.6417 0.00039286 0)
(63.6421 0.000446104 0)
(63.6423 0.000507725 0)
(63.6426 0.000507824 0)
(63.6428 0.000442221 0)
(63.6431 0.000385876 0)
(63.6435 0.00039692 0)
(63.6439 0.000462304 0)
(63.6444 0.000538026 0)
(63.6448 0.000559754 0)
(63.6452 0.000501026 0)
(63.6455 0.000429026 0)
(63.6459 0.000416981 0)
(63.6462 0.000454568 0)
(63.6466 0.000501496 0)
(63.6471 0.00053644 0)
(63.6475 0.000537933 0)
(63.6477 0.000516444 0)
(63.6479 0.000501457 0)
(63.6481 0.000480261 0)
(63.6484 0.00044565 0)
(63.6488 0.000430563 0)
(63.6492 0.000442774 0)
(63.6496 0.000443109 0)
(63.65 0.000403232 0)
(63.6503 0.000347842 0)
(63.6507 0.000318463 0)
(63.6512 0.00032024 0)
(63.6516 0.00034261 0)
(63.6521 0.000390719 0)
(63.6526 0.00044853 0)
(63.653 0.000468469 0)
(63.6532 0.000444093 0)
(63.6535 0.000425018 0)
(63.6538 0.000432924 0)
(63.6541 0.000437442 0)
(63.6545 0.00041693 0)
(63.6548 0.000390392 0)
(63.6551 0.000398179 0)
(63.6555 0.000450208 0)
(63.6559 0.000495866 0)
(63.6561 0.000486255 0)
(63.6563 0.000442326 0)
(63.6566 0.000407788 0)
(63.6568 0.000385549 0)
(63.6572 0.000370189 0)
(63.6576 0.000378533 0)
(63.6581 0.000410749 0)
(63.6585 0.000437377 0)
(63.6588 0.000443272 0)
(63.6591 0.000450093 0)
(63.6595 0.000479739 0)
(63.6598 0.000514632 0)
(63.6602 0.000526262 0)
(63.6606 0.000516638 0)
(63.6611 0.000495781 0)
(63.6615 0.000468681 0)
(63.662 0.000453514 0)
(63.6624 0.000451451 0)
(63.6627 0.000430078 0)
(63.6629 0.000380751 0)
(63.6632 0.000336532 0)
(63.6635 0.00031632 0)
(63.6639 0.000307468 0)
(63.6643 0.000305179 0)
(63.6648 0.000318799 0)
(63.6653 0.000345466 0)
(63.6658 0.000372128 0)
(63.6663 0.000387456 0)
(63.6667 0.00038119 0)
(63.6671 0.000352933 0)
(63.6675 0.00032264 0)
(63.6679 0.000317656 0)
(63.6683 0.000340217 0)
(63.6687 0.000360327 0)
(63.669 0.000363985 0)
(63.6694 0.000380255 0)
(63.6698 0.000423033 0)
(63.6702 0.000450776 0)
(63.6706 0.000437901 0)
(63.6709 0.000425436 0)
(63.6713 0.000442117 0)
(63.6717 0.000461522 0)
(63.6721 0.000468597 0)
(63.6725 0.000471913 0)
(63.673 0.000466845 0)
(63.6735 0.000453647 0)
(63.674 0.000443469 0)
(63.6744 0.000433848 0)
(63.6748 0.000418733 0)
(63.6751 0.000397262 0)
(63.6753 0.000369494 0)
(63.6756 0.000351092 0)
(63.676 0.000357369 0)
(63.6764 0.000368488 0)
(63.6768 0.000361102 0)
(63.6772 0.000347284 0)
(63.6775 0.000344403 0)
(63.6779 0.000347859 0)
(63.6782 0.000347067 0)
(63.6785 0.000345627 0)
(63.6789 0.000360715 0)
(63.6793 0.000389581 0)
(63.6797 0.000399718 0)
(63.6799 0.000385577 0)
(63.6803 0.000381683 0)
(63.6806 0.000395192 0)
(63.6808 0.000398003 0)
(63.6811 0.000388092 0)
(63.6814 0.000384604 0)
(63.6818 0.000379989 0)
(63.6821 0.000359045 0)
(63.6824 0.000331446 0)
(63.6827 0.000309078 0)
(63.6831 0.000294318 0)
(63.6835 0.000294274 0)
(63.6839 0.000309651 0)
(63.6843 0.000329818 0)
(63.6846 0.000348249 0)
(63.6849 0.000356239 0)
(63.6851 0.000340503 0)
(63.6853 0.000309292 0)
(63.6855 0.000293561 0)
(63.6858 0.000311239 0)
(63.6862 0.000347373 0)
(63.6865 0.000372683 0)
(63.6868 0.000378749 0)
(63.6872 0.000379787 0)
(63.6875 0.000377751 0)
(63.6877 0.000372822 0)
(63.6881 0.000395197 0)
(63.6887 0.000454129 0)
(63.6891 0.000500536 0)
(63.6895 0.000501052 0)
(63.6898 0.000476972 0)
(63.6902 0.000454314 0)
(63.6905 0.000444545 0)
(63.6909 0.000447695 0)
(63.6912 0.000445105 0)
(63.6915 0.000428518 0)
(63.6918 0.000416395 0)
(63.6921 0.000418095 0)
(63.6924 0.000426559 0)
(63.6928 0.000442697 0)
(63.6932 0.00046469 0)
(63.6936 0.000476964 0)
(63.694 0.000474016 0)
(63.6944 0.000474457 0)
(63.6948 0.000500907 0)
(63.6953 0.000542955 0)
(63.6956 0.00055767 0)
(63.6959 0.000533798 0)
(63.6963 0.000513891 0)
(63.6967 0.000517406 0)
(63.6971 0.000515369 0)
(63.6975 0.000502569 0)
(63.698 0.000507257 0)
(63.6986 0.000528953 0)
(63.699 0.000542533 0)
(63.6995 0.000546591 0)
(63.6999 0.000554978 0)
(63.7004 0.000565032 0)
(63.7008 0.000561888 0)
(63.7012 0.000537575 0)
(63.7016 0.000500319 0)
(63.702 0.000466556 0)
(63.7024 0.000443124 0)
(63.7028 0.000428977 0)
(63.7032 0.000424614 0)
(63.7036 0.000422864 0)
(63.7039 0.000408619 0)
(63.7042 0.000378648 0)
(63.7045 0.000348586 0)
(63.7049 0.000338018 0)
(63.7053 0.000343385 0)
(63.7056 0.000331719 0)
(63.706 0.000286951 0)
(63.7063 0.00024396 0)
(63.7068 0.000239273 0)
(63.7072 0.000259687 0)
(63.7076 0.000274703 0)
(63.708 0.000280952 0)
(63.7084 0.000286692 0)
(63.7087 0.000283968 0)
(63.709 0.000261283 0)
(63.7093 0.000231921 0)
(63.7097 0.000222125 0)
(63.7101 0.000230501 0)
(63.7103 0.000233254 0)
(63.7105 0.000225581 0)
(63.7108 0.000222855 0)
(63.711 0.000235937 0)
(63.7112 0.000261143 0)
(63.7115 0.000276876 0)
(63.7118 0.000265833 0)
(63.7121 0.000247326 0)
(63.7125 0.000246518 0)
(63.7129 0.0002484 0)
(63.7132 0.000231545 0)
(63.7134 0.000212245 0)
(63.7137 0.000211057 0)
(63.7139 0.000215676 0)
(63.7141 0.000210701 0)
(63.7143 0.000207952 0)
(63.7146 0.000217907 0)
(63.7148 0.000224231 0)
(63.7151 0.000216785 0)
(63.7155 0.000216533 0)
(63.7158 0.000232712 0)
(63.7161 0.000241366 0)
(63.7163 0.000227631 0)
(63.7165 0.00024279 0)
(63.717 0.000267549 0)
(50.4129 -8.91536e-06 0)
(85.1523 -9.57449e-06 0)
(72.9728 -2.15235e-05 0)
(60.3745 -1.62873e-05 0)
(59.6508 -1.5719e-05 0)
(63.1039 3.09936e-05 0)
(64.6053 0.00013494 0)
(64.1529 0.000181957 0)
(63.539 0.000162562 0)
(63.4379 9.25931e-05 0)
(63.581 6.04391e-05 0)
(63.6658 9.9328e-05 0)
(63.6559 8.01066e-05 0)
(63.6272 3.61397e-05 0)
(63.6189 4.50572e-05 0)
(63.6244 0.000100012 0)
(63.6286 0.000129266 0)
(63.6287 0.000130809 0)
(63.6278 0.000177058 0)
(63.6272 0.000223281 0)
(63.6273 0.000215284 0)
(63.6278 0.000168984 0)
(63.628 0.000141235 0)
(63.6279 0.000187522 0)
(63.6278 0.00028605 0)
(63.6279 0.000314673 0)
(63.6279 0.000239545 0)
(63.6277 0.000160262 0)
(63.6275 0.000146788 0)
(63.6274 0.000192463 0)
(63.6275 0.000229506 0)
(63.6276 0.000226125 0)
(63.6275 0.000204017 0)
(63.6274 0.000197709 0)
(63.6276 0.000230985 0)
(63.6279 0.000253555 0)
(63.6278 0.000203798 0)
(63.6277 0.000170089 0)
(63.6277 0.000221962 0)
(63.6278 0.000277246 0)
(63.628 0.000264417 0)
(63.6281 0.000195276 0)
(63.6281 0.000129924 0)
(63.628 0.000105554 0)
(63.6279 9.30455e-05 0)
(63.628 7.54401e-05 0)
(63.6281 7.10959e-05 0)
(63.6282 7.798e-05 0)
(63.6282 9.58678e-05 0)
(63.6282 0.000138404 0)
(63.6282 0.000174335 0)
(63.6283 0.000171694 0)
(63.6284 0.00017413 0)
(63.6285 0.000210992 0)
(63.6286 0.000247897 0)
(63.6288 0.000263753 0)
(63.629 0.00025434 0)
(63.6291 0.000224273 0)
(63.6292 0.000209616 0)
(63.6292 0.000231838 0)
(63.6292 0.000258003 0)
(63.6292 0.000243209 0)
(63.6292 0.00019536 0)
(63.6292 0.000169985 0)
(63.6292 0.000184559 0)
(63.6291 0.00019501 0)
(63.6291 0.000186004 0)
(63.6291 0.000198975 0)
(63.6291 0.000238589 0)
(63.6291 0.000249596 0)
(63.6291 0.000211752 0)
(63.6292 0.000167903 0)
(63.6293 0.000159302 0)
(63.6295 0.000183698 0)
(63.6295 0.000205321 0)
(63.6295 0.000207672 0)
(63.6294 0.000222674 0)
(63.6295 0.000268645 0)
(63.6296 0.000305984 0)
(63.6297 0.000302091 0)
(63.6298 0.000273523 0)
(63.6299 0.000233476 0)
(63.6299 0.000176005 0)
(63.6298 0.000122786 0)
(63.6299 0.000113536 0)
(63.6299 0.000150216 0)
(63.63 0.000192134 0)
(63.63 0.000203456 0)
(63.63 0.000187827 0)
(63.63 0.000165927 0)
(63.63 0.000143943 0)
(63.6301 0.000126279 0)
(63.6302 0.000117152 0)
(63.6302 0.000111603 0)
(63.6303 0.000126705 0)
(63.6303 0.000191353 0)
(63.6304 0.000280092 0)
(63.6304 0.000330901 0)
(63.6304 0.000326831 0)
(63.6304 0.000299972 0)
(63.6303 0.000275039 0)
(63.6303 0.000257046 0)
(63.6302 0.000249365 0)
(63.6302 0.000249311 0)
(63.6302 0.000251045 0)
(63.6302 0.000258832 0)
(63.6303 0.000274329 0)
(63.6303 0.000281162 0)
(63.6303 0.000260532 0)
(63.6303 0.000223945 0)
(63.6302 0.000209402 0)
(63.6302 0.000223223 0)
(63.6302 0.000223774 0)
(63.6301 0.000194493 0)
(63.6302 0.000174401 0)
(63.6302 0.000178947 0)
(63.6303 0.000172045 0)
(63.6303 0.000150776 0)
(63.6303 0.000152302 0)
(63.6303 0.00017159 0)
(63.6303 0.000179347 0)
(63.6304 0.000176474 0)
(63.6304 0.00016683 0)
(63.6304 0.000151172 0)
(63.6304 0.000151381 0)
(63.6305 0.000183938 0)
(63.6306 0.00024004 0)
(63.6306 0.000298251 0)
(63.6307 0.000325546 0)
(63.6307 0.000305592 0)
(63.6307 0.000271162 0)
(63.6307 0.000258813 0)
(63.6307 0.000262152 0)
(63.6308 0.000263191 0)
(63.6309 0.000262327 0)
(63.6309 0.000266158 0)
(63.631 0.000271477 0)
(63.631 0.000265566 0)
(63.6309 0.00025289 0)
(63.631 0.000256443 0)
(63.6311 0.000268812 0)
(63.6311 0.000260521 0)
(63.6311 0.000243622 0)
(63.6312 0.000249291 0)
(63.6312 0.000264156 0)
(63.6312 0.000262599 0)
(63.6313 0.000257319 0)
(63.6314 0.000262194 0)
(63.6315 0.00026439 0)
(63.6315 0.000259694 0)
(63.6315 0.000256187 0)
(63.6315 0.000252274 0)
(63.6315 0.000250958 0)
(63.6315 0.00026308 0)
(63.6315 0.000290182 0)
(63.6315 0.000334193 0)
(63.6316 0.000394745 0)
(63.6316 0.000441571 0)
(63.6317 0.000433006 0)
(63.6317 0.000367815 0)
(63.6316 0.000292585 0)
(63.6316 0.000256119 0)
(63.6317 0.000262253 0)
(63.6317 0.000276449 0)
(63.6318 0.000277226 0)
(63.6319 0.000260645 0)
(63.6319 0.000216429 0)
(63.6318 0.000163166 0)
(63.6318 0.000150843 0)
(63.6319 0.000180357 0)
(63.6319 0.000200995 0)
(63.632 0.000188505 0)
(63.632 0.000156297 0)
(63.632 0.000130424 0)
(63.632 0.000138151 0)
(63.6321 0.000174517 0)
(63.6321 0.000204069 0)
(63.6322 0.00021141 0)
(63.6323 0.000202965 0)
(63.6323 0.000180864 0)
(63.6323 0.000155668 0)
(63.6323 0.000146642 0)
(63.6324 0.000151574 0)
(63.6324 0.000148477 0)
(63.6325 0.000128852 0)
(63.6325 0.000119451 0)
(63.6326 0.00015597 0)
(63.6327 0.00021875 0)
(63.6328 0.00024131 0)
(63.6328 0.000206544 0)
(63.6329 0.000159657 0)
(63.6329 0.000121245 0)
(63.6329 8.02027e-05 0)
(63.6329 4.97144e-05 0)
(63.633 4.98578e-05 0)
(63.633 6.77708e-05 0)
(63.6331 8.36289e-05 0)
(63.6332 0.000100512 0)
(63.6333 0.000127901 0)
(63.6334 0.000161931 0)
(63.6335 0.000186799 0)
(63.6336 0.000190567 0)
(63.6336 0.000179321 0)
(63.6336 0.000167144 0)
(63.6337 0.000164282 0)
(63.6337 0.000182237 0)
(63.6337 0.000224052 0)
(63.6338 0.000268826 0)
(63.6339 0.000288114 0)
(63.634 0.00027505 0)
(63.634 0.000255851 0)
(63.634 0.000268212 0)
(63.6341 0.00030906 0)
(63.6341 0.000327081 0)
(63.6341 0.000296915 0)
(63.634 0.000259307 0)
(63.634 0.000259109 0)
(63.634 0.000291606 0)
(63.634 0.000329471 0)
(63.6341 0.0003608 0)
(63.6342 0.000383421 0)
(63.6342 0.000386476 0)
(63.6342 0.000363594 0)
(63.6342 0.000337798 0)
(63.6342 0.000340213 0)
(63.6342 0.000368929 0)
(63.6343 0.000395984 0)
(63.6343 0.000399762 0)
(63.6344 0.000382248 0)
(63.6344 0.000369144 0)
(63.6344 0.000373283 0)
(63.6344 0.000365451 0)
(63.6344 0.000325616 0)
(63.6344 0.000286858 0)
(63.6344 0.000280831 0)
(63.6344 0.00029397 0)
(63.6344 0.000310346 0)
(63.6345 0.000340767 0)
(63.6345 0.000385334 0)
(63.6345 0.000417126 0)
(63.6345 0.000421769 0)
(63.6345 0.000413656 0)
(63.6345 0.000397751 0)
(63.6344 0.000363938 0)
(63.6344 0.000330772 0)
(63.6344 0.000338519 0)
(63.6344 0.000381508 0)
(63.6344 0.000405309 0)
(63.6344 0.000387823 0)
(63.6343 0.000346563 0)
(50.413 -2.45451e-05 0)
(85.1524 1.13816e-05 0)
(72.9727 0.000112723 0)
(60.3743 0.00028377 0)
(59.6505 0.00039503 0)
(63.1035 0.000445111 0)
(64.6052 0.000507603 0)
(64.153 0.000419621 0)
(63.5389 0.000296273 0)
(63.4381 0.000249337 0)
(63.5812 0.000228965 0)
(63.6658 0.000293273 0)
(63.6558 0.000392554 0)
(63.6269 0.000491819 0)
(63.6187 0.000511307 0)
(63.6243 0.000470367 0)
(63.6291 0.000420242 0)
(63.629 0.000358744 0)
(63.6275 0.000334041 0)
(63.6273 0.000354276 0)
(63.6275 0.000372208 0)
(63.6276 0.00037771 0)
(63.6274 0.000378255 0)
(63.6273 0.000353176 0)
(63.6275 0.000316547 0)
(63.6278 0.000333857 0)
(63.6279 0.000418288 0)
(63.6279 0.000488659 0)
(63.6281 0.00046681 0)
(63.6283 0.000370954 0)
(63.6284 0.000318155 0)
(63.6284 0.000372069 0)
(63.6284 0.000435459 0)
(63.6285 0.000393364 0)
(63.6285 0.000301751 0)
(63.6285 0.000304132 0)
(63.6285 0.000373383 0)
(63.6285 0.000398878 0)
(63.6286 0.0003669 0)
(63.6287 0.000310969 0)
(63.6288 0.000281062 0)
(63.6289 0.000311713 0)
(63.6289 0.000385218 0)
(63.6289 0.000451925 0)
(63.6289 0.000458084 0)
(63.6288 0.000403271 0)
(63.6287 0.000355184 0)
(63.6287 0.000353897 0)
(63.6287 0.00037091 0)
(63.6287 0.000386638 0)
(63.6287 0.000391098 0)
(63.6287 0.000354637 0)
(63.6286 0.000292629 0)
(63.6285 0.000239104 0)
(63.6284 0.000186534 0)
(63.6284 0.000154133 0)
(63.6284 0.00018513 0)
(63.6285 0.000265355 0)
(63.6284 0.000347097 0)
(63.6285 0.000401496 0)
(63.6285 0.000418806 0)
(63.6286 0.000396634 0)
(63.6287 0.000344667 0)
(63.6288 0.000303229 0)
(63.629 0.000313569 0)
(63.6292 0.000358682 0)
(63.6293 0.000394856 0)
(63.6293 0.000425136 0)
(63.6294 0.000463969 0)
(63.6294 0.000471738 0)
(63.6294 0.000408685 0)
(63.6294 0.000305502 0)
(63.6294 0.000234751 0)
(63.6294 0.000247228 0)
(63.6294 0.000324037 0)
(63.6294 0.000390403 0)
(63.6293 0.000404627 0)
(63.6293 0.000386831 0)
(63.6293 0.000352859 0)
(63.6293 0.000301021 0)
(63.6294 0.000257344 0)
(63.6295 0.00025153 0)
(63.6296 0.000268518 0)
(63.6296 0.000280831 0)
(63.6295 0.000295599 0)
(63.6295 0.000335756 0)
(63.6295 0.000396632 0)
(63.6294 0.000443338 0)
(63.6294 0.000453277 0)
(63.6294 0.00043334 0)
(63.6294 0.00039334 0)
(63.6294 0.000349964 0)
(63.6294 0.000331404 0)
(63.6294 0.000335402 0)
(63.6294 0.000337898 0)
(63.6294 0.000344835 0)
(63.6294 0.000369945 0)
(63.6295 0.000392577 0)
(63.6296 0.000390155 0)
(63.6297 0.000374164 0)
(63.6298 0.000362679 0)
(63.6299 0.000354736 0)
(63.63 0.000346275 0)
(63.6301 0.000335023 0)
(63.6301 0.000314755 0)
(63.6302 0.00029095 0)
(63.6303 0.000285378 0)
(63.6304 0.00031157 0)
(63.6304 0.000353051 0)
(63.6305 0.000380903 0)
(63.6305 0.000395808 0)
(63.6306 0.000418195 0)
(63.6306 0.000434388 0)
(63.6306 0.000413257 0)
(63.6306 0.000376628 0)
(63.6306 0.000372255 0)
(63.6307 0.000387688 0)
(63.6307 0.000384979 0)
(63.6307 0.000375124 0)
(63.6307 0.000374562 0)
(63.6308 0.00037161 0)
(63.6308 0.000368728 0)
(63.6308 0.000372676 0)
(63.6309 0.000370387 0)
(63.6309 0.000358364 0)
(63.6309 0.000345243 0)
(63.6309 0.000335696 0)
(63.631 0.000339253 0)
(63.6311 0.000352137 0)
(63.6311 0.000345034 0)
(63.6312 0.000310691 0)
(63.6312 0.000276388 0)
(63.6313 0.000256307 0)
(63.6313 0.000245188 0)
(63.6313 0.000244114 0)
(63.6314 0.000260612 0)
(63.6314 0.000293969 0)
(63.6315 0.000321885 0)
(63.6315 0.000323344 0)
(63.6315 0.000317938 0)
(63.6315 0.000330514 0)
(63.6315 0.000340027 0)
(63.6315 0.000325663 0)
(63.6315 0.000310595 0)
(63.6315 0.000309314 0)
(63.6315 0.000300022 0)
(63.6315 0.000276238 0)
(63.6316 0.000256355 0)
(63.6316 0.000244807 0)
(63.6317 0.000240566 0)
(63.6318 0.000252619 0)
(63.6319 0.000277199 0)
(63.6319 0.000300847 0)
(63.632 0.000318065 0)
(63.632 0.000319982 0)
(63.632 0.000302024 0)
(63.632 0.00028587 0)
(63.6321 0.000294161 0)
(63.6322 0.000316787 0)
(63.6323 0.000324585 0)
(63.6324 0.000302915 0)
(63.6324 0.000267673 0)
(63.6325 0.000244113 0)
(63.6325 0.000238031 0)
(63.6325 0.000254176 0)
(63.6326 0.000304177 0)
(63.6327 0.000360116 0)
(63.6327 0.000375197 0)
(63.6327 0.000361664 0)
(63.6327 0.000362827 0)
(63.6327 0.00038413 0)
(63.6327 0.00041055 0)
(63.6327 0.000427839 0)
(63.6327 0.000419929 0)
(63.6327 0.000394611 0)
(63.6327 0.000375068 0)
(63.6326 0.000361494 0)
(63.6326 0.000347973 0)
(63.6327 0.000341727 0)
(63.6327 0.000339156 0)
(63.6327 0.000330154 0)
(63.6327 0.000324458 0)
(63.6327 0.000339379 0)
(63.6327 0.000370974 0)
(63.6327 0.000388978 0)
(63.6326 0.000370611 0)
(63.6326 0.000343061 0)
(63.6326 0.000348819 0)
(63.6326 0.000375525 0)
(63.6326 0.00038862 0)
(63.6326 0.000397609 0)
(63.6326 0.000417496 0)
(63.6326 0.000424503 0)
(63.6326 0.000405241 0)
(63.6326 0.000383379 0)
(63.6325 0.00037392 0)
(63.6325 0.000366926 0)
(63.6324 0.00035625 0)
(63.6324 0.000349621 0)
(63.6324 0.000357608 0)
(63.6324 0.000381126 0)
(63.6324 0.000407175 0)
(63.6324 0.000422711 0)
(63.6324 0.000421359 0)
(63.6324 0.000395922 0)
(63.6324 0.000349265 0)
(63.6324 0.000304219 0)
(63.6324 0.000283271 0)
(63.6324 0.000286774 0)
(63.6325 0.000291089 0)
(63.6325 0.00027282 0)
(63.6325 0.000246738 0)
(63.6326 0.000251191 0)
(63.6327 0.000284907 0)
(63.6327 0.000305783 0)
(63.6328 0.000294479 0)
(63.6328 0.000267894 0)
(63.6329 0.000239271 0)
(63.6329 0.000209113 0)
(63.633 0.000186852 0)
(63.6331 0.000191609 0)
(63.6332 0.000224054 0)
(63.6333 0.000255009 0)
(63.6333 0.000260658 0)
(63.6333 0.000248747 0)
(63.6334 0.000235436 0)
(63.6334 0.000225146 0)
(63.6334 0.000213733 0)
(63.6335 0.000192938 0)
(63.6335 0.000170246 0)
(63.6336 0.00017277 0)
(63.6336 0.000201617 0)
(63.6337 0.000223315 0)
(63.6337 0.000228112 0)
(63.6337 0.000237001 0)
(63.6338 0.000248284 0)
(63.6338 0.000240436 0)
(63.6338 0.000218637 0)
(63.6339 0.000207637 0)
(63.6339 0.000209423 0)
(63.634 0.000210936 0)
(63.6341 0.000221286 0)
(63.6342 0.000255209 0)
(63.6343 0.000289438 0)
(63.6344 0.000287941 0)
(63.6344 0.000265022 0)
(63.6346 0.000263083 0)
(63.6347 0.00028086 0)
(63.6348 0.000290589 0)
(63.6349 0.000294358 0)
(50.4128 -6.66321e-06 0)
(85.1519 3.92141e-05 0)
(72.9722 0.00011798 0)
(60.3742 0.000124626 0)
(59.6509 6.72594e-05 0)
(63.1038 2.32403e-06 0)
(64.6056 6.79231e-05 0)
(64.1537 0.000182243 0)
(63.5391 0.000234081 0)
(63.4382 0.000232323 0)
(63.5811 0.00020025 0)
(63.6656 0.000180597 0)
(63.6557 0.000139454 0)
(63.6272 8.10032e-05 0)
(63.6193 4.57173e-05 0)
(63.6246 8.0684e-05 0)
(63.6288 0.000159142 0)
(63.6291 0.00017634 0)
(63.6279 0.000116949 0)
(63.6274 0.000110266 0)
(63.6275 0.000197638 0)
(63.6279 0.000279739 0)
(63.6283 0.000259792 0)
(63.6285 0.00015776 0)
(63.6283 7.39012e-05 0)
(63.6281 5.77042e-05 0)
(63.6281 8.61206e-05 0)
(63.6282 7.52931e-05 0)
(63.6284 5.0352e-05 0)
(63.6283 6.04941e-05 0)
(63.628 0.000104158 0)
(63.6279 0.000161082 0)
(63.628 0.000177021 0)
(63.6281 0.000141096 0)
(63.6281 0.000112378 0)
(63.628 0.00016135 0)
(63.6281 0.000246991 0)
(63.6282 0.000247366 0)
(63.6282 0.000154407 0)
(63.6282 6.07898e-05 0)
(63.6281 3.24872e-05 0)
(63.6281 7.31235e-05 0)
(63.6281 0.000144709 0)
(63.6282 0.000201823 0)
(63.6284 0.000214225 0)
(63.6285 0.000189263 0)
(63.6285 0.000172265 0)
(63.6285 0.000185446 0)
(63.6286 0.000192671 0)
(63.6286 0.000188792 0)
(63.6288 0.000228291 0)
(63.6289 0.000307353 0)
(63.6289 0.000368059 0)
(63.629 0.00038119 0)
(63.629 0.000335316 0)
(63.6289 0.000257065 0)
(63.6289 0.000211106 0)
(63.6289 0.000207351 0)
(63.6289 0.000192568 0)
(63.6289 0.000137171 0)
(63.629 6.60686e-05 0)
(63.629 1.57344e-05 0)
(63.629 -1.39728e-05 0)
(63.6289 -3.704e-05 0)
(63.6288 -3.29286e-05 0)
(63.6288 1.53778e-05 0)
(63.6287 7.26651e-05 0)
(63.6287 0.000105645 0)
(63.6287 0.000129408 0)
(63.6288 0.000156242 0)
(63.6289 0.000170976 0)
(63.629 0.000168922 0)
(63.629 0.000165766 0)
(63.629 0.000187617 0)
(63.629 0.000245685 0)
(63.6291 0.000300014 0)
(63.6291 0.000302112 0)
(63.6291 0.000266353 0)
(63.6292 0.000233017 0)
(63.6293 0.000202978 0)
(63.6293 0.000168714 0)
(63.6294 0.000149912 0)
(63.6295 0.000157095 0)
(63.6296 0.000172496 0)
(63.6296 0.000182765 0)
(63.6296 0.000197781 0)
(63.6297 0.000228392 0)
(63.6298 0.000258254 0)
(63.6299 0.000262337 0)
(63.63 0.000240741 0)
(63.6301 0.00020225 0)
(63.6301 0.000155483 0)
(63.6302 0.000129727 0)
(63.6302 0.000140003 0)
(63.6302 0.000154581 0)
(63.6302 0.000148347 0)
(63.6301 0.000135981 0)
(63.6301 0.000129492 0)
(63.6301 0.000119627 0)
(63.6301 0.000106836 0)
(63.6301 0.000104518 0)
(63.6301 0.000114465 0)
(63.6302 0.000132099 0)
(63.6302 0.000155396 0)
(63.6302 0.000171711 0)
(63.6302 0.000165037 0)
(63.6302 0.000140281 0)
(63.6302 0.000122939 0)
(63.6303 0.000128827 0)
(63.6303 0.000141025 0)
(63.6303 0.000140154 0)
(63.6304 0.00014317 0)
(63.6305 0.000166361 0)
(63.6306 0.000177708 0)
(63.6306 0.000151571 0)
(63.6307 0.000125147 0)
(63.6308 0.000128672 0)
(63.6309 0.000137438 0)
(63.6309 0.000138734 0)
(63.631 0.000143224 0)
(63.6311 0.000139719 0)
(63.6311 0.000124033 0)
(63.6311 0.000116746 0)
(63.6312 0.000123704 0)
(63.6312 0.000136946 0)
(63.6312 0.000151184 0)
(63.6312 0.000157219 0)
(63.6311 0.000158495 0)
(63.6311 0.000171404 0)
(63.6312 0.00018757 0)
(63.6311 0.000186466 0)
(63.6311 0.000175792 0)
(63.6312 0.000173243 0)
(63.6312 0.000178728 0)
(63.6311 0.000183374 0)
(63.6311 0.000185573 0)
(63.6311 0.000197715 0)
(63.6311 0.00022319 0)
(63.6311 0.000237368 0)
(63.6311 0.000231266 0)
(63.6312 0.00023323 0)
(63.6313 0.000249734 0)
(63.6313 0.000251836 0)
(63.6313 0.000236976 0)
(63.6314 0.000227987 0)
(63.6314 0.000219856 0)
(63.6315 0.000196969 0)
(63.6315 0.000170092 0)
(63.6315 0.000149551 0)
(63.6315 0.000132019 0)
(63.6316 0.000125301 0)
(63.6316 0.000137703 0)
(63.6316 0.000163759 0)
(63.6316 0.000200483 0)
(63.6315 0.000239021 0)
(63.6315 0.00025356 0)
(63.6315 0.00023492 0)
(63.6314 0.000207858 0)
(63.6314 0.000198566 0)
(63.6314 0.00020707 0)
(63.6314 0.000213266 0)
(63.6314 0.000205952 0)
(63.6314 0.000194473 0)
(63.6314 0.000179539 0)
(63.6313 0.000155295 0)
(63.6314 0.000147123 0)
(63.6315 0.000174995 0)
(63.6315 0.000204714 0)
(63.6316 0.000205327 0)
(63.6317 0.000191373 0)
(63.6317 0.00017886 0)
(63.6318 0.000173206 0)
(63.6319 0.000180533 0)
(63.632 0.000189261 0)
(63.6321 0.000186687 0)
(63.6322 0.000183237 0)
(63.6323 0.000183048 0)
(63.6323 0.000177163 0)
(63.6324 0.000171888 0)
(63.6325 0.000174753 0)
(63.6325 0.000173859 0)
(63.6326 0.000161471 0)
(63.6326 0.00015331 0)
(63.6327 0.000173171 0)
(63.6328 0.00021886 0)
(63.6328 0.000250539 0)
(63.6328 0.000243478 0)
(63.6329 0.000226141 0)
(63.6329 0.000220674 0)
(63.633 0.000204835 0)
(63.633 0.000173047 0)
(63.6331 0.000154891 0)
(63.6332 0.000155255 0)
(63.6333 0.000152655 0)
(63.6334 0.000147374 0)
(63.6335 0.000154391 0)
(63.6335 0.000172031 0)
(63.6336 0.000187252 0)
(63.6337 0.000191426 0)
(63.6337 0.000186035 0)
(63.6338 0.000179872 0)
(63.6338 0.000177155 0)
(63.6339 0.000179154 0)
(63.6339 0.000191683 0)
(63.634 0.000210713 0)
(63.6341 0.000218699 0)
(63.6341 0.000208027 0)
(63.6341 0.000191325 0)
(63.6342 0.000188919 0)
(63.6342 0.000204942 0)
(63.6342 0.0002123 0)
(63.6342 0.000186755 0)
(63.6342 0.000150204 0)
(63.6342 0.000139763 0)
(63.6342 0.000153817 0)
(63.6342 0.000169783 0)
(63.6343 0.000184477 0)
(63.6343 0.00020404 0)
(63.6343 0.000220151 0)
(63.6342 0.000219398 0)
(63.6342 0.00020822 0)
(63.6342 0.000209068 0)
(63.6342 0.000226931 0)
(63.6341 0.000244945 0)