/*--------------------------------*- C++ -*----------------------------------*\
| =========                 |                                                 |
| \\      /  F ield         | OpenFOAM: The Open Source CFD Toolbox           |
|  \\    /   O peration     | Version:  2406                                  |
|   \\  /    A nd           | Website:  www.openfoam.com                      |
|    \\/     M anipulation  |                                                 |
\*---------------------------------------------------------------------------*/
FoamFile
{
    version     2.0;
    format      ascii;
    arch        "LSB;label=32;scalar=64";
    class       surfaceScalarField;
    location    "1.55";
    object      alphaPhi0.air;
}
// * * * * * * * * * * * * * * * * * * * * * * * * * * * * * * * * * * * * * //

dimensions      [0 3 -1 0 0 0 0];

oriented        oriented;

internalField   nonuniform List<scalar> 
12225
(
0.510972
1.59364e-06
0.510966
6.00711e-06
0.510959
7.19785e-06
0.510954
5.47257e-06
0.510949
4.31509e-06
0.510945
4.19689e-06
0.51094
5.2109e-06
0.510934
6.07916e-06
0.510928
5.90127e-06
0.510922
5.75737e-06
0.510916
6.07076e-06
0.51091
5.82791e-06
0.510905
5.39376e-06
0.5109
5.10614e-06
0.510895
5.04232e-06
0.51089
4.98817e-06
0.510885
4.94282e-06
0.51088
5.09796e-06
0.510875
5.1328e-06
0.51087
5.08853e-06
0.510864
5.13537e-06
0.510859
5.53546e-06
0.510853
6.25524e-06
0.510846
6.40651e-06
0.510841
5.70602e-06
0.510835
5.04511e-06
0.51083
5.1763e-06
0.510825
5.48479e-06
0.51082
5.25377e-06
0.510815
5.00463e-06
0.510809
5.27068e-06
0.510804
5.74002e-06
0.510797
6.03621e-06
0.510792
5.95415e-06
0.510786
5.43895e-06
0.510781
4.86361e-06
0.510777
4.72644e-06
0.510771
5.06917e-06
0.510766
5.48457e-06
0.51076
5.75907e-06
0.510755
5.6342e-06
0.510749
5.33355e-06
0.510744
5.53558e-06
0.510738
5.95452e-06
0.510732
6.07998e-06
0.510726
5.98112e-06
0.51072
5.73609e-06
0.510714
5.57748e-06
0.510709
5.57668e-06
0.510703
5.546e-06
0.510698
5.54047e-06
0.510692
5.70057e-06
0.510686
5.79003e-06
0.510681
5.5062e-06
0.510676
5.02654e-06
0.510671
4.80247e-06
0.510666
5.15297e-06
0.51066
5.62862e-06
0.510654
5.62065e-06
0.510649
5.47019e-06
0.510644
5.30569e-06
0.510639
5.04616e-06
0.510634
5.04047e-06
0.510628
5.24808e-06
0.510623
5.43431e-06
0.510617
5.55312e-06
0.510612
5.60448e-06
0.510606
5.58065e-06
0.510601
5.42779e-06
0.510596
5.19189e-06
0.510591
5.0011e-06
0.510586
5.03978e-06
0.51058
5.21843e-06
0.510575
5.33612e-06
0.510569
5.51782e-06
0.510564
5.70683e-06
0.510558
5.76125e-06
0.510552
5.7481e-06
0.510547
5.70048e-06
0.510541
5.64693e-06
0.510535
5.62709e-06
0.51053
5.68198e-06
0.510524
5.59745e-06
0.510519
5.18276e-06
0.510514
4.88733e-06
0.510509
4.93943e-06
0.510504
5.07645e-06
0.510499
5.38707e-06
0.510493
5.77473e-06
0.510487
5.82725e-06
0.510481
5.73159e-06
0.510475
5.77451e-06
0.51047
5.83467e-06
0.510464
5.84244e-06
0.510458
5.78993e-06
0.510452
5.75754e-06
0.510446
5.86545e-06
0.51044
5.95458e-06
0.510434
5.88981e-06
0.510429
5.69853e-06
0.510423
5.41247e-06
0.510418
5.21125e-06
0.510413
5.16896e-06
0.510408
5.10517e-06
0.510403
5.04922e-06
0.510398
5.19827e-06
0.510392
5.45471e-06
0.510387
5.60976e-06
0.510381
5.6605e-06
0.510375
5.67915e-06
0.510369
5.71443e-06
0.510364
5.69656e-06
0.510358
5.53895e-06
0.510353
5.32581e-06
0.510348
5.16248e-06
0.510343
5.11596e-06
0.510337
5.22287e-06
0.510332
5.3556e-06
0.510327
5.36954e-06
0.510321
5.25005e-06
0.510316
4.99008e-06
0.510312
4.8017e-06
0.510307
5.00526e-06
0.510301
5.42051e-06
0.510296
5.72116e-06
0.51029
5.8907e-06
0.510284
5.90439e-06
0.510278
5.70987e-06
0.510273
5.39748e-06
0.510267
5.20337e-06
0.510262
5.26083e-06
0.510257
5.43094e-06
0.510251
5.6244e-06
0.510245
5.75441e-06
0.51024
5.6764e-06
0.510234
5.51516e-06
0.510229
5.48893e-06
0.510223
5.59322e-06
0.510217
5.6675e-06
0.510212
5.61683e-06
0.510206
5.49319e-06
0.510201
5.33675e-06
0.510196
5.23178e-06
0.51019
5.26478e-06
0.510185
5.34509e-06
0.51018
5.48491e-06
0.510174
5.74223e-06
0.510168
5.95136e-06
0.510162
5.99484e-06
0.510156
5.85219e-06
0.510151
5.4792e-06
0.510146
5.04282e-06
0.510141
4.81554e-06
0.510136
4.82667e-06
0.510131
4.97437e-06
0.510126
5.22302e-06
0.51012
5.46585e-06
0.510115
5.49357e-06
0.510109
5.29228e-06
0.510104
5.1598e-06
0.510099
5.21401e-06
0.510094
5.19776e-06
0.510089
5.14293e-06
0.510084
5.23708e-06
0.510078
5.3458e-06
0.510073
5.46251e-06
0.510067
5.63514e-06
0.510061
5.71289e-06
0.510056
5.6183e-06
0.51005
5.38227e-06
0.510045
5.19601e-06
0.51004
5.181e-06
0.510035
5.21874e-06
0.510029
5.31508e-06
0.510024
5.47943e-06
0.510018
5.56008e-06
0.510013
5.49944e-06
0.510008
5.33594e-06
0.510002
5.16586e-06
0.509997
5.10599e-06
0.509992
5.12191e-06
0.509987
5.13406e-06
0.509982
5.20508e-06
0.509976
5.39242e-06
0.509971
5.61344e-06
0.509965
5.72751e-06
0.509959
5.62806e-06
0.509954
5.38697e-06
0.509949
5.16048e-06
0.509944
5.0827e-06
0.509939
5.21732e-06
0.509933
5.4152e-06
0.509928
5.55992e-06
0.509922
5.59121e-06
0.509917
5.41193e-06
0.509911
5.19992e-06
0.509906
5.14983e-06
0.509901
5.26955e-06
0.509896
5.54352e-06
0.50989
5.78425e-06
0.509884
5.83669e-06
0.509878
5.73575e-06
0.509873
5.53435e-06
0.509867
5.37318e-06
0.509862
5.35891e-06
0.509856
5.46689e-06
0.509851
5.55876e-06
0.509845
5.45833e-06
0.50984
5.34428e-06
0.509835
5.44652e-06
0.509829
5.53948e-06
0.509824
5.45224e-06
0.509818
5.34795e-06
0.509813
5.34521e-06
0.509808
5.3869e-06
0.509802
5.34808e-06
0.509797
5.25708e-06
0.509792
5.16881e-06
0.509787
5.0802e-06
0.509782
5.11352e-06
0.509776
5.22503e-06
0.509771
5.24391e-06
0.509766
5.23688e-06
0.509761
5.27431e-06
0.509755
5.34265e-06
0.50975
5.41771e-06
0.509744
5.41761e-06
0.509739
5.34947e-06
0.509734
5.29346e-06
0.509729
5.26242e-06
0.509723
5.25195e-06
0.509718
5.20849e-06
0.509713
5.15101e-06
0.509708
5.28582e-06
0.509702
5.58582e-06
0.509696
5.79091e-06
0.50969
5.85508e-06
0.509685
5.78835e-06
0.509679
5.64054e-06
0.509673
5.47661e-06
0.509668
5.19634e-06
0.509663
4.96054e-06
0.509658
4.99875e-06
0.509653
5.18338e-06
0.509648
5.42029e-06
0.509642
5.66236e-06
0.509636
5.89354e-06
0.50963
6.10358e-06
0.509623
6.65575e-06
5.92301e-06
0.510979
-1.89919e-07
0.510984
5.52098e-07
0.510989
2.0807e-06
0.510992
3.05138e-06
0.510993
2.67083e-06
0.510995
2.34908e-06
0.510998
2.01427e-06
0.511002
1.88956e-06
0.511006
2.0918e-06
0.51101
2.14947e-06
0.511013
2.46151e-06
0.511016
2.7658e-06
0.511019
2.59644e-06
0.511022
2.23207e-06
0.511025
2.19952e-06
0.511027
2.62558e-06
0.51103
2.77226e-06
0.511032
2.88188e-06
0.511034
3.10641e-06
0.511036
2.74778e-06
0.511039
2.35366e-06
0.511042
2.35663e-06
0.511046
2.31477e-06
0.51105
2.16993e-06
0.511054
2.22089e-06
0.511056
2.46171e-06
0.511059
2.47683e-06
0.511062
2.43252e-06
0.511065
2.72198e-06
0.511067
2.70114e-06
0.51107
2.27344e-06
0.511073
2.23973e-06
0.511077
2.48084e-06
0.51108
2.47902e-06
0.511084
2.27074e-06
0.511086
2.49713e-06
0.511088
2.91201e-06
0.51109
2.83025e-06
0.511093
2.49248e-06
0.511097
2.08655e-06
0.5111
1.97364e-06
0.511103
2.3869e-06
0.511106
2.5747e-06
0.51111
2.38052e-06
0.511114
2.17738e-06
0.511118
2.11532e-06
0.511121
2.34815e-06
0.511124
2.61141e-06
0.511127
2.67623e-06
0.51113
2.86778e-06
0.511132
2.98518e-06
0.511135
2.69032e-06
0.511138
2.39037e-06
0.511142
2.38047e-06
0.511144
2.56544e-06
0.511146
2.69906e-06
0.511148
2.8232e-06
0.511151
3.17756e-06
0.511153
3.20431e-06
0.511156
2.7328e-06
0.511159
2.27158e-06
0.511162
1.84925e-06
0.511166
1.58174e-06
0.511169
1.74521e-06
0.511173
2.04684e-06
0.511176
2.35848e-06
0.511179
2.63296e-06
0.511182
2.75002e-06
0.511184
2.73911e-06
0.511187
2.6844e-06
0.511189
2.55335e-06
0.511192
2.39647e-06
0.511195
2.32519e-06
0.511198
2.29452e-06
0.511201
2.29344e-06
0.511205
2.3223e-06
0.511208
2.39866e-06
0.511211
2.49924e-06
0.511214
2.3995e-06
0.511218
2.26509e-06
0.511221
2.32973e-06
0.511224
2.45213e-06
0.511227
2.66639e-06
0.51123
2.85932e-06
0.511232
2.76745e-06
0.511234
2.59901e-06
0.511237
2.38807e-06
0.51124
2.03995e-06
0.511244
2.02199e-06
0.511247
2.45222e-06
0.51125
2.78234e-06
0.511253
2.78477e-06
0.511256
2.63687e-06
0.51126
2.55966e-06
0.511263
2.61485e-06
0.511266
2.74922e-06
0.511269
3.03093e-06
0.511271
3.15027e-06
0.511275
2.8023e-06
0.511278
2.43437e-06
0.511281
2.31699e-06
0.511284
2.18034e-06
0.511287
2.08826e-06
0.51129
2.21467e-06
0.511293
2.30763e-06
0.511295
2.34778e-06
0.511298
2.6103e-06
0.511301
2.86808e-06
0.511304
2.80154e-06
0.511307
2.62038e-06
0.51131
2.53473e-06
0.511313
2.45233e-06
0.511317
2.36194e-06
0.51132
2.33659e-06
0.511322
2.25646e-06
0.511325
2.11711e-06
0.511329
2.20573e-06
0.511331
2.53881e-06
0.511334
2.76171e-06
0.511336
2.85663e-06
0.511338
2.93435e-06
0.51134
2.75553e-06
0.511343
2.44946e-06
0.511346
2.39613e-06
0.511349
2.47477e-06
0.511353
2.53079e-06
0.511356
2.57932e-06
0.511359
2.581e-06
0.511362
2.53783e-06
0.511365
2.46896e-06
0.511367
2.45598e-06
0.51137
2.5496e-06
0.511373
2.64732e-06
0.511376
2.62784e-06
0.51138
2.48315e-06
0.511383
2.35282e-06
0.511386
2.30465e-06
0.511389
2.35524e-06
0.511392
2.53584e-06
0.511395
2.72263e-06
0.511398
2.78849e-06
0.511401
2.69722e-06
0.511403
2.48519e-06
0.511406
2.42119e-06
0.511409
2.5863e-06
0.511412
2.71486e-06
0.511415
2.72759e-06
0.511418
2.66929e-06
0.511421
2.65821e-06
0.511424
2.8115e-06
0.511427
2.91227e-06
0.511429
2.75672e-06
0.511432
2.53571e-06
0.511434
2.428e-06
0.511437
2.3313e-06
0.51144
2.26987e-06
0.511443
2.407e-06
0.511445
2.60235e-06
0.511448
2.53525e-06
0.511451
2.19922e-06
0.511454
2.01957e-06
0.511457
2.17732e-06
0.51146
2.38793e-06
0.511463
2.5949e-06
0.511465
2.80035e-06
0.511468
2.78561e-06
0.511471
2.57549e-06
0.511474
2.40695e-06
0.511478
2.44824e-06
0.51148
2.52963e-06
0.511483
2.46524e-06
0.511486
2.38707e-06
0.511489
2.33174e-06
0.511492
2.26764e-06
0.511495
2.27293e-06
0.511498
2.3051e-06
0.511501
2.35175e-06
0.511504
2.41005e-06
0.511507
2.40412e-06
0.51151
2.40331e-06
0.511513
2.46067e-06
0.511515
2.50284e-06
0.511518
2.48584e-06
0.511521
2.35065e-06
0.511524
2.14163e-06
0.511528
2.11584e-06
0.511531
2.34851e-06
0.511534
2.64876e-06
0.511536
2.86632e-06
0.511539
2.8649e-06
0.511541
2.65493e-06
0.511544
2.3635e-06
0.511548
2.17656e-06
0.511551
2.29302e-06
0.511554
2.50542e-06
0.511556
2.6065e-06
0.511559
2.63095e-06
0.511562
2.4997e-06
0.511565
2.34406e-06
0.511568
2.33011e-06
0.511572
2.37153e-06
0.511575
2.47104e-06
0.511578
2.58235e-06
0.511581
2.6131e-06
0.511583
2.58897e-06
0.511586
2.61612e-06
0.511589
2.80547e-06
0.511592
2.93743e-06
0.511594
2.82145e-06
0.511597
2.70355e-06
0.5116
2.73053e-06
0.511602
2.81286e-06
0.511605
2.8003e-06
0.511608
2.67251e-06
0.51161
2.59689e-06
0.511613
2.52419e-06
0.511616
2.4085e-06
0.511619
2.46922e-06
0.511621
2.60988e-06
0.511624
2.58372e-06
0.511627
2.41069e-06
0.51163
2.20455e-06
0.511633
2.09078e-06
0.511636
2.0532e-06
0.511639
2.07461e-06
0.511642
2.26637e-06
0.511645
2.51965e-06
0.511648
2.65681e-06
0.511651
2.67509e-06
0.511653
2.59448e-06
0.511656
2.41929e-06
0.511659
2.21573e-06
0.511662
2.06652e-06
0.511665
1.97901e-06
0.511669
1.99754e-06
0.511673
2.22537e-06
0.511676
2.60709e-06
0.511679
2.8882e-06
0.511681
2.91138e-06
0.511684
2.7849e-06
0.511687
2.57525e-06
0.511689
2.3116e-06
0.511692
2.21724e-06
0.511695
2.36457e-06
0.511698
2.57029e-06
0.511701
2.71234e-06
0.511704
2.73828e-06
0.511707
2.68635e-06
0.511711
2.61201e-06
2.78354e-06
0.510975
4.1706e-07
0.510975
9.57021e-07
0.510976
1.29995e-06
0.510977
1.64594e-06
0.510978
1.73411e-06
0.510979
1.76745e-06
0.510979
1.90727e-06
0.510979
1.83672e-06
0.510979
2.01763e-06
0.510979
2.30624e-06
0.510979
2.24126e-06
0.51098
1.99996e-06
0.51098
1.88787e-06
0.510981
2.06444e-06
0.510981
2.22726e-06
0.510981
2.37744e-06
0.510981
2.70006e-06
0.510981
2.44296e-06
0.510983
1.87216e-06
0.510983
2.19523e-06
0.510983
2.68767e-06
0.510983
2.44875e-06
0.510983
2.00165e-06
0.510983
1.91602e-06
0.510983
2.37951e-06
0.510983
2.919e-06
0.510982
2.90976e-06
0.510982
2.40076e-06
0.510983
1.83159e-06
0.510984
1.87506e-06
0.510984
2.38373e-06
0.510984
2.29885e-06
0.510984
1.81115e-06
0.510985
2.02457e-06
0.510985
2.53273e-06
0.510985
2.43325e-06
0.510986
1.86087e-06
0.510987
1.49899e-06
0.510988
1.59871e-06
0.510988
1.84105e-06
0.510988
2.14579e-06
0.510988
2.47509e-06
0.510988
2.77321e-06
0.510987
2.8808e-06
0.510987
2.36669e-06
0.510988
1.63628e-06
0.510988
1.53888e-06
0.510989
1.94176e-06
0.510989
2.39409e-06
0.510989
2.89125e-06
0.510989
3.06206e-06
0.510989
2.49053e-06
0.51099
1.88385e-06
0.51099
1.78513e-06
0.510991
1.85856e-06
0.510992
2.09693e-06
0.510992
2.60987e-06
0.510992
3.09237e-06
0.510992
2.94528e-06
0.510993
2.22916e-06
0.510993
1.88804e-06
0.510993
2.00517e-06
0.510993
2.12106e-06
0.510992
2.2564e-06
0.510992
2.45917e-06
0.510991
2.58438e-06
0.510991
2.57159e-06
0.510992
2.32265e-06
0.510993
1.94665e-06
0.510994
1.75059e-06
0.510994
1.89418e-06
0.510994
2.20848e-06
0.510994
2.3726e-06
0.510995
2.18799e-06
0.510995
1.8407e-06
0.510996
1.54373e-06
0.510997
1.59026e-06
0.510997
2.2246e-06
0.510996
2.78168e-06
0.510996
2.72543e-06
0.510996
2.56408e-06
0.510996
2.36659e-06
0.510997
1.9756e-06
0.510998
1.88734e-06
0.510998
2.17381e-06
0.510998
2.48038e-06
0.510998
2.80936e-06
0.510997
2.94597e-06
0.510996
2.64563e-06
0.510996
2.30782e-06
0.510997
2.19694e-06
0.510998
2.23205e-06
0.510998
2.36638e-06
0.510998
2.43658e-06
0.510998
2.33107e-06
0.510999
2.23282e-06
0.511
2.2107e-06
0.511001
2.19105e-06
0.511001
2.18669e-06
0.511001
2.23016e-06
0.511001
2.3587e-06
0.511001
2.47088e-06
0.511001
2.29895e-06
0.511001
1.98857e-06
0.511001
1.87271e-06
0.511002
1.87944e-06
0.511003
2.00052e-06
0.511003
2.31142e-06
0.511003
2.59203e-06
0.511003
2.60099e-06
0.511004
2.33104e-06
0.511004
1.98705e-06
0.511005
1.78913e-06
0.511005
1.75533e-06
0.511006
1.8383e-06
0.511006
2.01576e-06
0.511006
2.16386e-06
0.511006
2.14418e-06
0.511007
2.04343e-06
0.511008
2.06581e-06
0.511008
2.3188e-06
0.511008
2.59458e-06
0.511008
2.58577e-06
0.511008
2.37294e-06
0.511009
2.15548e-06
0.511009
1.95762e-06
0.51101
1.85497e-06
0.51101
1.98707e-06
0.511011
2.30626e-06
0.511011
2.55033e-06
0.511011
2.56381e-06
0.511011
2.43274e-06
0.511011
2.36984e-06
0.511011
2.4644e-06
0.511011
2.53021e-06
0.511011
2.50643e-06
0.511011
2.4644e-06
0.511011
2.31555e-06
0.511011
2.11802e-06
0.511012
2.0556e-06
0.511012
2.15837e-06
0.511013
2.34059e-06
0.511013
2.42181e-06
0.511013
2.38204e-06
0.511013
2.33638e-06
0.511014
2.29006e-06
0.511014
2.34457e-06
0.511014
2.46708e-06
0.511014
2.43986e-06
0.511015
2.41956e-06
0.511015
2.54741e-06
0.511015
2.55018e-06
0.511016
2.33005e-06
0.511016
2.08253e-06
0.511016
1.841e-06
0.511017
1.64228e-06
0.511018
1.72615e-06
0.511018
2.05668e-06
0.511018
2.30783e-06
0.511018
2.36443e-06
0.511018
2.36064e-06
0.511018
2.3255e-06
0.511018
2.16875e-06
0.511019
2.05797e-06
0.511019
2.15714e-06
0.51102
2.31539e-06
0.51102
2.36905e-06
0.51102
2.26445e-06
0.51102
2.21174e-06
0.51102
2.40091e-06
0.51102
2.62707e-06
0.51102
2.76627e-06
0.511019
2.77728e-06
0.511019
2.58156e-06
0.511019
2.34544e-06
0.511019
2.17354e-06
0.511019
2.04923e-06
0.51102
2.03557e-06
0.51102
2.09784e-06
0.51102
2.15456e-06
0.511021
2.21102e-06
0.511021
2.28639e-06
0.511021
2.43093e-06
0.511021
2.61859e-06
0.51102
2.65248e-06
0.51102
2.47735e-06
0.51102
2.2613e-06
0.51102
2.15465e-06
0.511021
2.23515e-06
0.511021
2.40772e-06
0.511022
2.51101e-06
0.511022
2.47761e-06
0.511021
2.31254e-06
0.511021
2.18384e-06
0.511022
2.14452e-06
0.511022
2.13463e-06
0.511023
2.23274e-06
0.511023
2.29484e-06
0.511023
2.18505e-06
0.511023
2.10181e-06
0.511024
2.09262e-06
0.511024
2.1004e-06
0.511024
2.15096e-06
0.511025
2.22994e-06
0.511025
2.24445e-06
0.511026
2.11097e-06
0.511026
2.02395e-06
0.511027
2.14951e-06
0.511028
2.28652e-06
0.511028
2.36528e-06
0.511028
2.47443e-06
0.511029
2.59441e-06
0.511029
2.6758e-06
0.511029
2.61966e-06
0.511029
2.42861e-06
0.511029
2.19838e-06
0.51103
1.94198e-06
0.51103
1.82623e-06
0.511031
1.96644e-06
0.511031
2.19977e-06
0.511031
2.39334e-06
0.511031
2.43493e-06
0.511031
2.28399e-06
0.511031
2.0797e-06
0.511031
1.95193e-06
0.511031
1.95992e-06
0.511032
2.05281e-06
0.511032
2.19236e-06
0.511033
2.40736e-06
0.511033
2.51893e-06
0.511033
2.41685e-06
0.511032
2.33984e-06
0.511032
2.3836e-06
0.511032
2.38736e-06
0.511031
2.33453e-06
0.511031
2.26065e-06
0.511032
2.19774e-06
0.511032
2.20189e-06
0.511033
2.20087e-06
0.511034
2.22946e-06
0.511034
2.33457e-06
0.511034
2.32579e-06
0.511034
2.2016e-06
0.511034
2.16737e-06
0.511035
2.23138e-06
0.511035
2.25508e-06
0.511036
2.21942e-06
0.511036
2.16497e-06
0.511036
2.16951e-06
2.3175e-06
0.510978
2.17829e-08
0.510978
7.44201e-07
0.510978
1.39237e-06
0.510978
1.76004e-06
0.510978
1.78995e-06
0.510978
1.49486e-06
0.510979
1.50638e-06
0.510979
1.86441e-06
0.510979
2.08522e-06
0.510979
1.96911e-06
0.510979
1.87008e-06
0.510979
2.10653e-06
0.510979
2.19421e-06
0.510979
1.97182e-06
0.510979
1.92267e-06
0.51098
2.07028e-06
0.510981
1.73296e-06
0.510981
1.54965e-06
0.510981
2.20108e-06
0.510981
2.49873e-06
0.510981
2.04977e-06
0.510982
1.70098e-06
0.510983
1.72394e-06
0.510982
2.02619e-06
0.510983
2.09024e-06
0.510984
1.86046e-06
0.510985
1.7e-06
0.510985
1.87794e-06
0.510985
2.33591e-06
0.510984
2.57151e-06
0.510984
2.31283e-06
0.510985
1.80842e-06
0.510985
1.3335e-06
0.510986
1.44998e-06
0.510986
2.22273e-06
0.510986
2.58174e-06
0.510986
2.04397e-06
0.510986
1.46821e-06
0.510986
1.40219e-06
0.510986
1.50654e-06
0.510987
1.70771e-06
0.510987
2.12711e-06
0.510987
2.51425e-06
0.510988
2.61598e-06
0.510988
2.2886e-06
0.510988
1.71218e-06
0.510988
1.55551e-06
0.510988
2.0119e-06
0.510988
2.36285e-06
0.510988
2.38433e-06
0.510989
2.54624e-06
0.510989
2.52057e-06
0.510989
2.02029e-06
0.510989
1.62303e-06
0.510989
1.8265e-06
0.510989
2.24489e-06
0.510989
2.34173e-06
0.51099
2.24875e-06
0.51099
2.18768e-06
0.510991
1.77879e-06
0.510992
1.17929e-06
0.510993
9.51937e-07
0.510994
1.25586e-06
0.510994
1.88691e-06
0.510994
2.43352e-06
0.510994
2.65958e-06
0.510994
2.67301e-06
0.510994
2.47034e-06
0.510994
1.96539e-06
0.510994
1.50533e-06
0.510994
1.33712e-06
0.510995
1.36001e-06
0.510996
1.6677e-06
0.510996
2.08826e-06
0.510996
2.24499e-06
0.510995
2.15725e-06
0.510995
1.87557e-06
0.510995
1.67182e-06
0.510996
1.93925e-06
0.510996
2.4207e-06
0.510996
2.69115e-06
0.510996
2.67909e-06
0.510996
2.44306e-06
0.510995
2.15707e-06
0.510996
1.85769e-06
0.510996
1.58717e-06
0.510998
1.6384e-06
0.510999
2.01779e-06
0.510999
2.39298e-06
0.510999
2.43325e-06
0.510999
2.14369e-06
0.510999
1.85428e-06
0.511
1.68496e-06
0.511
1.77336e-06
0.511001
2.11987e-06
0.511001
2.14918e-06
0.511001
1.90587e-06
0.511001
1.96978e-06
0.511001
2.16215e-06
0.511001
2.13743e-06
0.511002
2.02758e-06
0.511002
1.94245e-06
0.511003
1.89902e-06
0.511003
1.99755e-06
0.511002
2.20654e-06
0.511002
2.2949e-06
0.511002
2.20366e-06
0.511002
2.19483e-06
0.511002
2.27411e-06
0.511003
2.17766e-06
0.511003
1.99222e-06
0.511003
1.90217e-06
0.511003
1.77229e-06
0.511003
1.68099e-06
0.511003
1.83565e-06
0.511003
2.0219e-06
0.511003
2.0264e-06
0.511003
1.96272e-06
0.511003
1.94342e-06
0.511004
1.92258e-06
0.511004
1.94957e-06
0.511004
2.13986e-06
0.511005
2.31474e-06
0.511005
2.29519e-06
0.511005
2.18543e-06
0.511005
1.97796e-06
0.511005
1.61808e-06
0.511006
1.41381e-06
0.511006
1.61214e-06
0.511007
1.95949e-06
0.511007
2.21663e-06
0.511007
2.30459e-06
0.511008
2.137e-06
0.511008
1.91863e-06
0.511009
1.89962e-06
0.511009
2.02603e-06
0.511009
2.17615e-06
0.51101
2.24078e-06
0.511009
2.204e-06
0.511009
2.09583e-06
0.51101
1.90967e-06
0.51101
1.86584e-06
0.511011
2.06401e-06
0.511011
2.26389e-06
0.511011
2.3686e-06
0.511011
2.37986e-06
0.511011
2.345e-06
0.511011
2.41272e-06
0.511011
2.47126e-06
0.511011
2.30197e-06
0.511011
2.05018e-06
0.511012
1.96339e-06
0.511012
1.99738e-06
0.511012
2.06291e-06
0.511012
2.12232e-06
0.511011
1.97529e-06
0.511012
1.64371e-06
0.511012
1.466e-06
0.511013
1.57971e-06
0.511013
1.77792e-06
0.511014
1.93287e-06
0.511014
2.20799e-06
0.511014
2.46638e-06
0.511013
2.40883e-06
0.511013
2.19094e-06
0.511014
2.06368e-06
0.511014
2.07066e-06
0.511014
2.09501e-06
0.511014
2.05548e-06
0.511015
2.0573e-06
0.511015
2.08717e-06
0.511016
2.13457e-06
0.511016
2.25406e-06
0.511017
2.27292e-06
0.511017
2.11713e-06
0.511017
1.91022e-06
0.511017
1.69609e-06
0.511018
1.54702e-06
0.511018
1.52998e-06
0.511019
1.57887e-06
0.51102
1.67418e-06
0.51102
1.77817e-06
0.511021
1.79725e-06
0.511021
1.83962e-06
0.511022
1.97739e-06
0.511023
2.0958e-06
0.511023
2.15845e-06
0.511023
2.13766e-06
0.511023
2.05263e-06
0.511023
1.98609e-06
0.511024
1.99088e-06
0.511024
2.074e-06
0.511024
2.05763e-06
0.511025
1.94184e-06
0.511025
1.90697e-06
0.511025
1.93022e-06
0.511025
2.05731e-06
0.511025
2.23565e-06
0.511025
2.2072e-06
0.511025
1.98896e-06
0.511026
1.73362e-06
0.511026
1.55646e-06
0.511027
1.62983e-06
0.511027
1.93206e-06
0.511027
2.25918e-06
0.511027
2.37278e-06
0.511027
2.28256e-06
0.511027
2.2464e-06
0.511027
2.25508e-06
0.511027
2.17111e-06
0.511027
2.09387e-06
0.511028
2.16862e-06
0.511028
2.34033e-06
0.511028
2.39005e-06
0.511028
2.29469e-06
0.511028
2.23866e-06
0.511028
2.18703e-06
0.511028
2.05938e-06
0.511028
1.8851e-06
0.511028
1.69482e-06
0.511029
1.63301e-06
0.51103
1.72485e-06
0.51103
1.84627e-06
0.51103
1.9977e-06
0.51103
2.12991e-06
0.51103
2.15143e-06
0.51103
2.09343e-06
0.51103
1.99468e-06
0.511031
1.87822e-06
0.511031
1.76024e-06
0.511032
1.63649e-06
0.511033
1.57631e-06
0.511034
1.67793e-06
0.511034
1.95116e-06
0.511034
2.28901e-06
0.511034
2.43974e-06
0.511034
2.2703e-06
0.511034
1.96898e-06
0.511035
1.69571e-06
0.511035
1.51401e-06
0.511036
1.59964e-06
0.511037
1.88998e-06
0.511037
2.03154e-06
0.511037
1.96605e-06
0.511037
1.87169e-06
0.511038
1.84691e-06
0.511038
1.7906e-06
0.511039
1.69233e-06
0.511039
1.71594e-06
1.98641e-06
0.510976
8.7962e-09
0.510976
5.18904e-07
0.510977
1.0356e-06
0.510977
1.27082e-06
0.510977
1.48695e-06
0.510977
1.72536e-06
0.510977
1.80127e-06
0.510977
1.42142e-06
0.510978
1.19712e-06
0.510978
1.58065e-06
0.510979
1.78019e-06
0.510979
1.76278e-06
0.510979
1.90542e-06
0.510979
2.13719e-06
0.510979
1.60054e-06
0.510981
8.68605e-07
0.510981
1.27577e-06
0.510981
1.83026e-06
0.510981
1.74896e-06
0.510982
1.52631e-06
0.510983
1.52983e-06
0.510983
1.81549e-06
0.510982
1.97481e-06
0.510983
1.78815e-06
0.510983
1.78438e-06
0.510983
1.76154e-06
0.510983
1.87574e-06
0.510982
2.37582e-06
0.510982
2.30844e-06
0.510983
1.78149e-06
0.510984
1.42286e-06
0.510984
1.3616e-06
0.510984
1.56849e-06
0.510984
1.75277e-06
0.510985
1.5589e-06
0.510986
1.19982e-06
0.510987
1.24591e-06
0.510987
1.49615e-06
0.510987
1.53111e-06
0.510987
1.5427e-06
0.510987
1.64977e-06
0.510987
1.80182e-06
0.510988
1.8396e-06
0.510989
1.73138e-06
0.510989
1.79098e-06
0.510989
2.00172e-06
0.510988
2.12553e-06
0.510988
2.22976e-06
0.510988
2.21754e-06
0.510988
1.9931e-06
0.510989
1.83183e-06
0.51099
1.82881e-06
0.51099
1.92251e-06
0.51099
2.01676e-06
0.510989
2.08161e-06
0.510989
2.24217e-06
0.510989
2.17119e-06
0.51099
1.68053e-06
0.510991
1.35783e-06
0.510991
1.32738e-06
0.510991
1.37357e-06
0.510991
1.5851e-06
0.51099
1.66245e-06
0.51099
1.54988e-06
0.510991
1.73806e-06
0.510992
2.06387e-06
0.510992
1.97907e-06
0.510993
1.74803e-06
0.510993
1.67774e-06
0.510993
1.56902e-06
0.510993
1.46747e-06
0.510993
1.44127e-06
0.510994
1.29219e-06
0.510994
1.16983e-06
0.510995
1.37674e-06
0.510996
1.71482e-06
0.510996
1.85031e-06
0.510996
1.84978e-06
0.510996
1.83425e-06
0.510996
1.77913e-06
0.510997
1.83511e-06
0.510998
2.02705e-06
0.510998
2.08902e-06
0.510998
1.97932e-06
0.510998
1.82578e-06
0.510998
1.66696e-06
0.510998
1.76537e-06
0.510998
2.09431e-06
0.510998
2.18706e-06
0.510999
2.07491e-06
0.510999
2.04044e-06
0.510999
2.06027e-06
0.510998
2.06559e-06
0.510998
2.03136e-06
0.510998
2.02143e-06
0.510998
2.06987e-06
0.510998
1.98624e-06
0.510998
1.76231e-06
0.510999
1.64048e-06
0.510999
1.60809e-06
0.511
1.59139e-06
0.511
1.70942e-06
0.511
1.73954e-06
0.511001
1.49965e-06
0.511001
1.39437e-06
0.511002
1.55199e-06
0.511003
1.7593e-06
0.511003
1.97085e-06
0.511003
2.02885e-06
0.511003
1.81926e-06
0.511004
1.5343e-06
0.511005
1.31236e-06
0.511005
1.1983e-06
0.511006
1.27071e-06
0.511006
1.44905e-06
0.511006
1.61255e-06
0.511007
1.8036e-06
0.511006
2.00721e-06
0.511006
2.10248e-06
0.511006
2.03639e-06
0.511006
1.88936e-06
0.511007
1.83924e-06
0.511007
1.874e-06
0.511008
1.80285e-06
0.511008
1.68815e-06
0.511008
1.73609e-06
0.511008
1.83743e-06
0.511008
1.80894e-06
0.511007
1.75421e-06
0.511008
1.80368e-06
0.511008
1.97421e-06
0.511008
2.15071e-06
0.511008
2.12956e-06
0.511008
1.96707e-06
0.511008
1.82739e-06
0.511008
1.75566e-06
0.511009
1.83249e-06
0.511009
1.94354e-06
0.511009
1.91512e-06
0.51101
1.85445e-06
0.51101
1.79117e-06
0.51101
1.7549e-06
0.51101
1.8392e-06
0.51101
1.92359e-06
0.511011
1.99857e-06
0.511011
2.07893e-06
0.511011
2.04774e-06
0.511012
2.02208e-06
0.511012
2.0707e-06
0.511012
2.05219e-06
0.511012
2.00592e-06
0.511012
1.94062e-06
0.511013
1.65173e-06
0.511013
1.32233e-06
0.511014
1.34754e-06
0.511015
1.56679e-06
0.511015
1.61431e-06
0.511015
1.53012e-06
0.511015
1.52071e-06
0.511015
1.6397e-06
0.511015
1.71856e-06
0.511015
1.76216e-06
0.511016
1.93885e-06
0.511016
2.11371e-06
0.511016
2.09319e-06
0.511017
1.95528e-06
0.511017
1.8808e-06
0.511017
1.8646e-06
0.511017
1.84078e-06
0.511017
1.8794e-06
0.511018
1.87926e-06
0.511018
1.76905e-06
0.511018
1.6864e-06
0.511019
1.59977e-06
0.51102
1.49612e-06
0.51102
1.42467e-06
0.511021
1.32376e-06
0.511021
1.26416e-06
0.511021
1.3377e-06
0.511021
1.48152e-06
0.511021
1.62371e-06
0.511021
1.66714e-06
0.511022
1.58893e-06
0.511022
1.57217e-06
0.511022
1.71243e-06
0.511022
1.9263e-06
0.511022
2.15159e-06
0.511022
2.24208e-06
0.511022
2.10289e-06
0.511022
1.88381e-06
0.511022
1.77856e-06
0.511023
1.8758e-06
0.511023
2.04521e-06
0.511022
2.15356e-06
0.511022
2.18277e-06
0.511022
1.99065e-06
0.511022
1.67651e-06
0.511023
1.52317e-06
0.511024
1.56412e-06
0.511024
1.75467e-06
0.511024
1.97436e-06
0.511023
1.98864e-06
0.511023
1.79406e-06
0.511024
1.64617e-06
0.511024
1.70051e-06
0.511025
1.83665e-06
0.511025
1.9492e-06
0.511025
2.11876e-06
0.511025
2.31873e-06
0.511025
2.39923e-06
0.511025
2.24865e-06
0.511025
1.94621e-06
0.511025
1.76128e-06
0.511026
1.71758e-06
0.511027
1.68558e-06
0.511027
1.72086e-06
0.511028
1.76928e-06
0.511028
1.71273e-06
0.511028
1.63635e-06
0.511028
1.56441e-06
0.511029
1.44535e-06
0.511029
1.34461e-06
0.511029
1.39054e-06
0.51103
1.59521e-06
0.51103
1.73626e-06
0.511031
1.69473e-06
0.511031
1.62701e-06
0.511031
1.61999e-06
0.511032
1.61364e-06
0.511032
1.61611e-06
0.511032
1.60702e-06
0.511032
1.52166e-06
0.511032
1.46477e-06
0.511033
1.57287e-06
0.511033
1.80754e-06
0.511033
2.01369e-06
0.511034
2.04488e-06
0.511034
1.93745e-06
0.511034
1.78381e-06
0.511034
1.56488e-06
0.511034
1.38529e-06
0.511034
1.41837e-06
0.511035
1.61825e-06
0.511035
1.79503e-06
0.511035
1.78135e-06
0.511035
1.66701e-06
0.511035
1.65562e-06
0.511035
1.70958e-06
0.511035
1.6772e-06
1.7697e-06
0.510977
2.0561e-07
0.510977
2.82454e-07
0.510978
7.35874e-07
0.510978
1.15002e-06
0.510978
1.09096e-06
0.510979
9.61e-07
0.51098
1.07328e-06
0.51098
1.36106e-06
0.51098
1.30967e-06
0.51098
1.29015e-06
0.51098
1.48104e-06
0.51098
1.48837e-06
0.510981
1.20207e-06
0.510982
1.10024e-06
0.510982
1.66366e-06
0.510981
1.9604e-06
0.510981
1.60118e-06
0.510981
1.61895e-06
0.510981
1.80547e-06
0.510981
1.579e-06
0.510981
1.45972e-06
0.510981
1.51986e-06
0.510981
1.78037e-06
0.510981
1.93091e-06
0.510981
1.6152e-06
0.510982
1.3502e-06
0.510982
1.26916e-06
0.510983
1.44533e-06
0.510984
1.72205e-06
0.510984
1.71362e-06
0.510984
1.43535e-06
0.510984
1.34016e-06
0.510984
1.53236e-06
0.510984
1.59134e-06
0.510984
1.40331e-06
0.510984
1.12103e-06
0.510985
8.93392e-07
0.510985
9.98508e-07
0.510985
1.52224e-06
0.510985
2.02057e-06
0.510984
2.05088e-06
0.510985
1.6821e-06
0.510985
1.16556e-06
0.510986
7.65162e-07
0.510987
7.18772e-07
0.510988
1.03193e-06
0.510989
1.50026e-06
0.510989
2.02177e-06
0.510989
2.36329e-06
0.510989
2.00224e-06
0.510989
1.29014e-06
0.51099
1.12649e-06
0.510991
1.39182e-06
0.510991
1.73565e-06
0.510991
2.14012e-06
0.510991
2.35616e-06
0.510991
2.25351e-06
0.510991
1.85513e-06
0.51099
1.47244e-06
0.51099
1.32388e-06
0.510991
1.11158e-06
0.510991
9.84395e-07
0.510991
1.54958e-06
0.510991
2.19183e-06
0.51099
2.05392e-06
0.510991
1.45863e-06
0.510992
1.06852e-06
0.510993
1.0872e-06
0.510993
1.30989e-06
0.510993
1.37315e-06
0.510993
1.25495e-06
0.510994
1.18402e-06
0.510994
1.15386e-06
0.510994
1.07045e-06
0.510994
9.83848e-07
0.510995
1.06079e-06
0.510995
1.34081e-06
0.510996
1.61659e-06
0.510996
1.77217e-06
0.510996
1.77199e-06
0.510996
1.60787e-06
0.510996
1.57146e-06
0.510997
1.72242e-06
0.510997
1.79359e-06
0.510997
1.78906e-06
0.510997
1.64981e-06
0.510997
1.44409e-06
0.510998
1.54027e-06
0.510998
1.82754e-06
0.510998
1.94631e-06
0.510999
1.93758e-06
0.510999
1.89075e-06
0.510999
1.72492e-06
0.511
1.47851e-06
0.511
1.39784e-06
0.511001
1.5339e-06
0.511001
1.70919e-06
0.511001
1.90111e-06
0.511001
1.93992e-06
0.511001
1.64359e-06
0.511001
1.23536e-06
0.511002
1.06303e-06
0.511002
1.20841e-06
0.511002
1.40571e-06
0.511002
1.54892e-06
0.511002
1.76731e-06
0.511002
1.86048e-06
0.511002
1.6769e-06
0.511003
1.46e-06
0.511003
1.28278e-06
0.511004
1.13308e-06
0.511004
1.18541e-06
0.511004
1.32337e-06
0.511003
1.36311e-06
0.511003
1.38236e-06
0.511004
1.30879e-06
0.511004
1.19305e-06
0.511005
1.31414e-06
0.511006
1.61444e-06
0.511006
1.85623e-06
0.511006
1.90192e-06
0.511006
1.76293e-06
0.511006
1.6411e-06
0.511006
1.52709e-06
0.511007
1.33912e-06
0.511007
1.34523e-06
0.511007
1.57939e-06
0.511007
1.71021e-06
0.511007
1.69154e-06
0.511008
1.60976e-06
0.511008
1.50604e-06
0.511009
1.56961e-06
0.511009
1.71972e-06
0.511009
1.73512e-06
0.511009
1.71158e-06
0.51101
1.65151e-06
0.51101
1.53628e-06
0.51101
1.54155e-06
0.511011
1.58398e-06
0.511011
1.57363e-06
0.511011
1.57008e-06
0.511011
1.5412e-06
0.511012
1.59404e-06
0.511012
1.71908e-06
0.511012
1.78567e-06
0.511012
1.8758e-06
0.511012
1.95642e-06
0.511012
1.91209e-06
0.511013
1.82801e-06
0.511013
1.7193e-06
0.511013