/*--------------------------------*- C++ -*----------------------------------*\
| =========                 |                                                 |
| \\      /  F ield         | OpenFOAM: The Open Source CFD Toolbox           |
|  \\    /   O peration     | Version:  2406                                  |
|   \\  /    A nd           | Website:  www.openfoam.com                      |
|    \\/     M anipulation  |                                                 |
\*---------------------------------------------------------------------------*/
FoamFile
{
    version     2.0;
    format      ascii;
    arch        "LSB;label=32;scalar=64";
    class       volScalarField;
    location    "1.55";
    object      p_rgh;
}
// * * * * * * * * * * * * * * * * * * * * * * * * * * * * * * * * * * * * * //

dimensions      [1 -1 -2 0 0 0 0];

internalField   nonuniform List<scalar> 
6250
(
-1.01891
-3222.23
-1033.9
542.167
497.385
28.4857
-132.095
-54.8231
21.5819
27.943
7.8006
-1.79614
0.465054
4.15711
4.89229
4.06903
3.52174
3.53993
3.69406
3.7325
3.68922
3.65027
3.63609
3.62965
3.61431
3.59623
3.58168
3.56718
3.55347
3.53701
3.52401
3.5127
3.49736
3.4809
3.46331
3.44569
3.42597
3.4083
3.39415
3.37799
3.36251
3.34942
3.33729
3.32547
3.3125
3.30135
3.29168
3.2759
3.25811
3.24793
3.24026
3.22896
3.21399
3.19549
3.18048
3.17143
3.16135
3.14603
3.12566
3.105
3.08794
3.07338
3.05894
3.04149
3.02084
3.00475
2.99581
2.98468
2.97044
2.95929
2.9454
2.92677
2.91397
2.90425
2.88832
2.8691
2.84913
2.82893
2.81189
2.79911
2.78568
2.76739
2.74985
2.73362
2.71439
2.6976
2.68416
2.67011
2.65843
2.64775
2.63276
2.61541
2.59735
2.5803
2.56951
2.56161
2.55347
2.54607
2.53244
2.51158
2.48858
2.46216
2.43762
2.42355
2.41536
2.40642
2.39547
2.37939
2.35974
2.33856
2.31137
2.28373
2.26619
2.25535
2.24711
2.24334
2.23777
2.2263
2.21484
2.20253
2.18587
2.16644
2.14413
2.12244
2.10569
2.09072
2.07605
2.06262
2.0485
2.0346
2.0218
2.00756
1.99366
1.98042
1.963
1.94452
1.92808
1.90794
1.88609
1.86789
1.84948
1.82942
1.81231
1.79893
1.78489
1.76908
1.75477
1.74099
1.725
1.70807
1.69247
1.67831
1.66438
1.65075
1.63699
1.62061
1.60154
1.58379
1.56886
1.55175
1.53015
1.50893
1.48878
1.46608
1.44301
1.42131
1.39881
1.37712
1.35864
1.3426
1.32597
1.30562
1.28526
1.2679
1.24857
1.22739
1.20875
1.19012
1.17041
1.15334
1.13796
1.12275
1.10956
1.09589
1.07879
1.05991
1.03965
1.02013
1.00387
0.987076
0.968729
0.951951
0.934913
0.916278
0.898249
0.881705
0.86736
0.853178
0.83546
0.817299
0.801955
0.78839
0.778069
0.769621
0.758315
0.743387
0.726764
0.710832
0.695171
0.678113
0.660593
0.643117
0.624798
0.603715
0.580761
0.560377
0.543178
0.527116
0.511105
0.495065
0.479303
0.463842
0.450477
0.438392
0.424094
0.408424
0.392122
0.372114
0.347402
0.32269
0.302092
0.283732
0.26638
0.251168
0.236562
0.221271
0.206919
0.193599
0.179914
0.166576
0.153304
0.137675
0.118816
0.100029
0.08573
0.0736874
0.0600587
0.0442316
0.0293425
0.00566154
-1.05037
-3222.3
-1033.93
542.18
497.394
28.4747
-132.104
-54.826
21.5854
27.9488
7.79978
-1.79528
0.470856
4.15567
4.88588
4.0661
3.52419
3.54299
3.69025
3.7268
3.6876
3.64743
3.62951
3.6276
3.61923
3.60338
3.58625
3.5641
3.55117
3.54133
3.52536
3.50808
3.49282
3.47998
3.46158
3.44369
3.42871
3.41
3.39204
3.37764
3.36424
3.34941
3.33331
3.32202
3.31457
3.30133
3.28797
3.27732
3.2598
3.24484
3.23889
3.2298
3.21487
3.19924
3.1867
3.17465
3.15793
3.13974
3.12304
3.10725
3.09216
3.07598
3.05712
3.03648
3.01631
3.00308
2.9992
2.99239
2.97532
2.95669
2.94076
2.92517
2.91278
2.90232
2.88849
2.87071
2.84815
2.82609
2.81018
2.79843
2.78945
2.77496
2.75165
2.73044
2.71137
2.69181
2.67974
2.67288
2.66252
2.64969
2.6341
2.61359
2.59228
2.57541
2.56717
2.5639
2.55854
2.55017
2.53389
2.50836
2.48378
2.46338
2.44347
2.42717
2.41606
2.40504
2.39264
2.37756
2.35703
2.33404
2.31122
2.28862
2.26994
2.25707
2.2469
2.23961
2.23519
2.22929
2.21995
2.20506
2.1845
2.16327
2.1424
2.12227
2.10562
2.09014
2.07395
2.06018
2.04856
2.03617
2.02348
2.00979
1.9941
1.97834
1.96089
1.9422
1.92677
1.91043
1.88967
1.86959
1.85059
1.82922
1.80857
1.79494
1.78429
1.76865
1.75282
1.74078
1.72713
1.71104
1.69584
1.68187
1.66639
1.64945
1.63502
1.62156
1.60336
1.58231
1.5649
1.54975
1.53125
1.51183
1.49322
1.46957
1.44213
1.41708
1.39421
1.37367
1.35596
1.34093
1.32848
1.31208
1.2901
1.26905
1.24715
1.22301
1.20337
1.18782
1.17176
1.15658
1.14211
1.12538
1.10829
1.09185
1.07415
1.05761
1.04193
1.02397
1.00634
0.988739
0.968866
0.950083
0.932537
0.914459
0.896949
0.879243
0.863718
0.852003
0.837879
0.82154
0.806878
0.79112
0.775994
0.764648
0.754217
0.741987
0.72717
0.712418
0.698499
0.681407
0.661062
0.641031
0.622674
0.602831
0.581378
0.563254
0.546416
0.527894
0.510378
0.494417
0.478695
0.462975
0.449844
0.438298
0.423023
0.406047
0.390737
0.373744
0.351472
0.326061
0.303339
0.28354
0.264285
0.247467
0.232782
0.218558
0.206524
0.195165
0.18076
0.165657
0.152771
0.139634
0.122502
0.102299
0.0844254
0.0697314
0.0559878
0.0418121
0.0240833
0.00903157
-1.05087
-3222.28
-1033.91
542.187
497.387
28.4708
-132.102
-54.8193
21.5889
27.9482
7.80324
-1.79352
0.469939
4.15951
4.89046
4.06391
3.52149
3.54734
3.69624
3.72578
3.68346
3.6495
3.63512
3.62861
3.61941
3.60541
3.58756
3.56785
3.55537
3.53811
3.51906
3.5078
3.49376
3.48186
3.46772
3.44621
3.42487
3.40396
3.38916
3.38118
3.36908
3.35146
3.33219
3.31949
3.31544
3.306
3.2909
3.27717
3.2602
3.24563
3.23752
3.22708
3.2139
3.20172
3.18991
3.17442
3.15524
3.13794
3.12238
3.10815
3.09425
3.07605
3.05508
3.03538
3.0186
3.00689
2.99858
2.98807
2.97429
2.95973
2.94413
2.92692
2.91313
2.90271
2.8877
2.86732
2.8451
2.82656
2.8148
2.80293
2.78944
2.77317
2.75065
2.72958
2.71172
2.69239
2.67884
2.67263
2.66368
2.65066
2.63457
2.61299
2.59092
2.5762
2.57107
2.5689
2.56138
2.54871
2.53149
2.50773
2.48074
2.45808
2.44191
2.42926
2.41887
2.40871
2.39639
2.37946
2.35544
2.32882
2.30584
2.28628
2.26996
2.25939
2.25156
2.24291
2.23539
2.22851
2.21923
2.20492
2.1843
2.16137
2.14039
2.12139
2.10523
2.09191
2.07734
2.06256
2.05052
2.03691
2.02175
2.00839
1.99351
1.97817
1.96382
1.94499
1.92513
1.90832
1.88877
1.86712
1.84801
1.82993
1.81184
1.79682
1.78437
1.76938
1.75306
1.73896
1.72587
1.71218
1.69688
1.68153
1.66674
1.64966
1.63284
1.61936
1.60463
1.58548
1.56609
1.54896
1.53039
1.50972
1.48988
1.4686
1.44331
1.41728
1.39514
1.37784
1.36054
1.34127
1.32481
1.30888
1.28869
1.26832
1.24828
1.22559
1.20445
1.18716
1.17072
1.15521
1.14122
1.12623
1.11004
1.0934
1.07493
1.05734
1.04208
1.02409
1.00443
0.986579
0.968422
0.950997
0.934998
0.917623
0.899672
0.881131
0.862431
0.847464
0.833888
0.819245
0.806957
0.795138
0.781209
0.76736
0.754138
0.740884
0.726572
0.711599
0.696736
0.680645
0.662977
0.643033
0.621808
0.601483
0.581228
0.56199
0.544311
0.526602
0.50904
0.492661
0.478627
0.46572
0.452966
0.440441
0.42561
0.408154
0.389266
0.369255
0.348153
0.325287
0.303063
0.283764
0.265886
0.249219
0.23452
0.220482
0.207256
0.195525
0.182831
0.167836
0.151484
0.135239
0.119441
0.101999
0.0842341
0.0692839
0.0567102
0.042903
0.025858
0.00925257
-1.05571
-3222.3
-1033.93
542.185
497.391
28.4698
-132.11
-54.8242
21.5875
27.9453
7.79591
-1.80315
0.467612
4.16196
4.88963
4.06134
3.51656
3.54181
3.69583
3.73203
3.68829
3.6486
3.63517
3.62775
3.61466
3.59737
3.57969
3.56678
3.55594
3.54012
3.52396
3.50783
3.49275
3.4813
3.46238
3.44119
3.42662
3.41186
3.39387
3.37469
3.36013
3.35207
3.34163
3.32348
3.30688
3.2976
3.28778
3.27704
3.26669
3.25028
3.23219
3.222
3.21518
3.20129
3.18534
3.17398
3.16013
3.14186
3.12333
3.10605
3.09019
3.07273
3.05285
3.03461
3.02214
3.01356
3.00234
2.98651
2.96912
2.95301
2.9418
2.93258
2.9182
2.90065
2.8835
2.86526
2.84601
2.82913
2.81569
2.80155
2.78706
2.77205
2.75028
2.72629
2.70878
2.69522
2.68461
2.67646
2.66315
2.64541
2.62905
2.61298
2.59526
2.57805
2.56924
2.56798
2.56133
2.54749
2.53044
2.50677
2.47988
2.45843
2.44129
2.42718
2.41906
2.41107
2.39835
2.38132
2.3568
2.32711
2.30203
2.28391
2.26877
2.25843
2.2533
2.24716
2.23836
2.22912
2.21799
2.20194
2.18232
2.16236
2.14183
2.12131
2.10428
2.09123
2.07776
2.06305
2.04996
2.03651
2.02222
2.0092
1.9936
1.9759
1.96194
1.94617
1.92526
1.90703
1.8892
1.86666
1.84544
1.82876
1.81239
1.79566
1.78232
1.7707
1.75647
1.74036
1.72542
1.71227
1.69699
1.68012
1.66635
1.65183
1.63399
1.61855
1.60485
1.58668
1.56615
1.54866
1.53106
1.5094
1.48704
1.46561
1.44236
1.41759
1.39505
1.37745
1.36166
1.34339
1.32547
1.30875
1.28822
1.26604
1.24631
1.22593
1.20459
1.18626
1.17117
1.1565
1.14155
1.12658
1.11037
1.09339
1.07561
1.05688
1.03988
1.02314
1.00499
0.987722
0.969648
0.950159
0.931621
0.913821
0.898366
0.884173
0.866897
0.849853
0.835166
0.819105
0.803618
0.790939
0.779078
0.767088
0.754578
0.742157
0.728709
0.712789
0.696304
0.679924
0.662894
0.642878
0.62079
0.601501
0.582595
0.562058
0.543294
0.525968
0.508783
0.492379
0.478424
0.466131
0.452425
0.438901
0.426332
0.410695
0.390466
0.368878
0.348384
0.32639
0.302617
0.282084
0.264741
0.248185
0.23481
0.222551
0.207753
0.193542
0.181027
0.167799
0.151862
0.134104
0.118697
0.104412
0.087548
0.0697934
0.0540867
0.039464
0.0235997
0.00800389
-1.05921
-3222.31
-1033.93
542.188
497.401
28.4767
-132.109
-54.8285
21.585
27.9466
7.80012
-1.79917
0.469292
4.16381
4.89195
4.06305
3.5182
3.54403
3.69767
3.72799
3.68025
3.64696
3.64183
3.63404
3.61683
3.60205
3.58568
3.57175
3.55851
3.53579
3.5187
3.50841
3.49271
3.47851
3.46592
3.44632
3.42574
3.41017
3.393
3.37501
3.36173
3.35247
3.34221
3.32372
3.30714
3.30216
3.29295
3.27551
3.26113
3.24818
3.23487
3.22693
3.21959
3.20204
3.18148
3.16815
3.15726
3.14506
3.13
3.10985
3.08827
3.06917
3.0514
3.03544
3.02461
3.01683
3.00441
2.98654
2.96957
2.95416
2.94021
2.93125
2.92021
2.90107
2.88154
2.86333
2.84406
2.83029
2.82108
2.80659
2.78804
2.77032
2.74827
2.72287
2.70536
2.69603
2.68832
2.68031
2.66682
2.64597
2.62486
2.60812
2.59511
2.58433
2.57641
2.57054
2.5615
2.54523
2.52413
2.50268
2.48067
2.46058
2.4453
2.432
2.42062
2.40945
2.39446
2.37686
2.35588
2.33018
2.30445
2.28352
2.26819
2.25848
2.25336
2.24912
2.24187
2.23116
2.2177
2.19988
2.17997
2.16075
2.14091
2.12231
2.1061
2.09163
2.07872
2.06468
2.05006
2.03688
2.02355
2.00991
1.9945
1.97569
1.95964
1.94577
1.92625
1.90629
1.88877
1.86653
1.84362
1.82786
1.81444
1.79733
1.78141
1.76943
1.75637
1.74168
1.72709
1.71302
1.69844
1.68175
1.6666
1.65315
1.63563
1.61626
1.60066
1.58542
1.56701
1.54901
1.5312
1.51012
1.48719
1.46394
1.44095
1.41848
1.396
1.37685
1.36186
1.34523
1.32643
1.30853
1.28868
1.26599
1.2444
1.22409
1.20422
1.18724
1.17329
1.15872
1.14265
1.12621
1.10844
1.09134
1.07593
1.05908
1.04183
1.0243
1.0044
0.985321
0.968308
0.951348
0.933775
0.915039
0.897688
0.8831
0.867054
0.849819
0.834991
0.820505
0.805554
0.792432
0.780369
0.767334
0.753463
0.740708
0.728328
0.713908
0.697757
0.680193
0.661858
0.642163
0.620636
0.601439
0.58352
0.562941
0.542471
0.523979
0.50665
0.491164
0.479064
0.468794
0.455587
0.439851
0.424711
0.408506
0.389378
0.368956
0.348852
0.327903
0.30526
0.283872
0.264995
0.247428
0.233775
0.222512
0.208408
0.193901
0.18101
0.167704
0.152607
0.13478
0.116974
0.101492
0.0864992
0.0709408
0.0549773
0.0392568
0.0232437
0.00776549
-1.05622
-3222.31
-1033.93
542.18
497.391
28.4733
-132.112
-54.8328
21.5847
27.9449
7.79572
-1.79772
0.47052
4.15913
4.88615
4.06337
3.51971
3.53909
3.69541
3.73412
3.68643
3.64564
3.63607
3.63312
3.61645
3.59853
3.58562
3.56738
3.54825
3.53614
3.52555
3.51057
3.49358
3.47483
3.45943
3.44557
3.42648
3.41
3.39506
3.37746
3.36242
3.34933
3.33751
3.32444
3.31
3.30071
3.29007
3.27334
3.25915
3.24872
3.23749
3.22651
3.2153
3.19755
3.17925
3.16919
3.15894
3.14505
3.13065
3.10989
3.08462
3.06617
3.05354
3.03852
3.02591
3.01715
3.00212
2.98306
2.96943
2.95744
2.94323
2.93066
2.9161
2.89669
2.87977
2.86498
2.84781
2.83197
2.81841
2.80447
2.78781
2.76711
2.74538
2.72421
2.70668
2.69738
2.69084
2.67913
2.66286
2.64569
2.62663
2.60806
2.59564
2.58512
2.57524
2.57033
2.56292
2.54511
2.52178
2.49931
2.47813
2.4593
2.44402
2.43154
2.42291
2.41361
2.39762
2.37604
2.35092
2.32503
2.30195
2.28406
2.27218
2.26281
2.25385
2.24825
2.24257
2.23107
2.21657
2.19887
2.17808
2.15861
2.13938
2.1221
2.10825
2.094
2.07978
2.06544
2.04997
2.03594
2.02245
2.00816
1.99459
1.978
1.95894
1.94316
1.92524
1.90428
1.88673
1.86737
1.84421
1.82583
1.8125
1.79746
1.78214
1.76951
1.75644
1.74284
1.72847
1.71314
1.69928
1.68272
1.66399
1.65069
1.63798
1.61974
1.60179
1.58509
1.56546
1.54649
1.52888
1.50851
1.48604
1.46212
1.43939
1.42021
1.3993
1.37736
1.36065
1.34512
1.32619
1.30729
1.28816
1.26619
1.24394
1.22325
1.20424
1.18772
1.17281
1.1581
1.14281
1.12665
1.1093
1.09203
1.07563
1.05779
1.03976
1.02311
1.00511
0.986434
0.968377
0.950458
0.933416
0.915675
0.897362
0.881706
0.866736
0.850352
0.8357
0.821939
0.806003
0.790455
0.778196
0.76766
0.755272
0.74141
0.727926
0.71351
0.698038
0.68055
0.660475
0.640838
0.620978
0.600847
0.582075
0.562056
0.541212
0.52276
0.507185
0.493339
0.479833
0.46747
0.455378
0.440458
0.424181
0.408189
0.390491
0.370452
0.348852
0.327186
0.305742
0.283925
0.26439
0.247637
0.233158
0.221281
0.208885
0.195399
0.181191
0.165967
0.151423
0.135757
0.117664
0.100707
0.0854428
0.0696843
0.0535492
0.0387172
0.0231988
0.00745952
-1.05473
-3222.3
-1033.93
542.172
497.388
28.4746
-132.107
-54.8299
21.5841
27.9429
7.7938
-1.79787
0.469192
4.16013
4.88992
4.06458
3.52178
3.54301
3.69544
3.73159
3.68695
3.6463
3.63329
3.63173
3.61996
3.60318
3.58651
3.56858
3.55458
3.54092
3.52115
3.50336
3.49484
3.4808
3.46086
3.44367
3.42398
3.40864
3.39857
3.38358
3.36447
3.34363
3.33102
3.3276
3.31788
3.30496
3.29132
3.27057
3.25432
3.24956
3.24248
3.22692
3.21103
3.1957
3.18178
3.17316
3.16163
3.14506
3.12826
3.10576
3.08215
3.06985
3.06147
3.04564
3.02678
3.01162
2.99879
2.98551
2.97131
2.9586
2.94654
2.93131
2.91454
2.89604
2.8764
2.86219
2.85061
2.83535
2.82046
2.807
2.78713
2.76246
2.74253
2.72542
2.70938
2.69958
2.69242
2.68032
2.66371
2.64584
2.62589
2.60678
2.59619
2.58973
2.58085
2.57169
2.56077
2.54346
2.51948
2.49555
2.47643
2.46063
2.44783
2.43645
2.42482
2.41262
2.39608
2.37375
2.34926
2.32503
2.30279
2.28558
2.27408
2.26509
2.25565
2.24794
2.24197
2.23167
2.21713
2.1994
2.1778
2.15686
2.13785
2.1219
2.10971
2.09639
2.08148
2.06616
2.05028
2.03658
2.02338
2.00816
1.9945
1.97885
1.95847
1.94188
1.92602
1.90442
1.88389
1.86553
1.84531
1.82626
1.81169
1.7984
1.78367
1.76971
1.75646
1.74361
1.72977
1.71362
1.69986
1.68621
1.66734
1.64983
1.63581
1.61867
1.60064
1.5848
1.56652
1.54683
1.52797
1.50732
1.48542
1.46146
1.43731
1.41903
1.40151
1.38049
1.36214
1.34557
1.32586
1.30571
1.28682
1.26615
1.24404
1.22386
1.206
1.18881
1.17291
1.15839
1.14297
1.12668
1.10929
1.09101
1.07535
1.06006
1.04194
1.02336
1.00437
0.985319
0.967082
0.9488
0.932786
0.918136
0.901222
0.883956
0.867073
0.849271
0.833166
0.820179
0.807804
0.794425
0.781169
0.768882
0.755299
0.740349
0.726155
0.712149
0.698363
0.682075
0.661298
0.641218
0.62159
0.600031
0.580204
0.561294
0.541241
0.522535
0.50683
0.49306
0.479305
0.467021
0.456682
0.443094
0.425719
0.408477
0.390198
0.36945
0.347952
0.327419
0.3074
0.286108
0.266191
0.248565
0.23182
0.218989
0.208403
0.196133
0.182419
0.16721
0.151321
0.134992
0.117055
0.100029
0.084998
0.0696298
0.0536879
0.0391066
0.0238335
0.00788813
-1.05294
-3222.3
-1033.93
542.171
497.386
28.472
-132.111
-54.8345
21.5834
27.9452
7.79361
-1.79781
0.471587
4.15929
4.88444
4.05683
3.51645
3.54163
3.69957
3.73648
3.68841
3.64788
3.63263
3.6304
3.61977
3.60058
3.5847
3.56882
3.55122
3.53352
3.52057
3.50955
3.49715
3.47876
3.45545
3.4381
3.42475
3.41275
3.40019
3.38011
3.35996
3.34649
3.33765
3.33147
3.31747
3.29571
3.27993
3.27138
3.26337
3.25523
3.24295
3.22114
3.19998
3.1896
3.18494
3.17757
3.1633
3.14485
3.12502
3.10214
3.08178
3.07109
3.06334
3.04791
3.02806
3.01113
2.99596
2.98222
2.97186
2.96116
2.94723
2.93057
2.91274
2.89367
2.87516
2.86192
2.85105
2.83793
2.82284
2.8041
2.78098
2.75772
2.73961
2.72697
2.71563
2.70423
2.69215
2.67767
2.66018
2.64271
2.62644
2.61047
2.59857
2.59099
2.58194
2.56963
2.55641
2.54085
2.51914
2.4957
2.47627
2.45936
2.44578
2.43542
2.42524
2.41369
2.3972
2.37406
2.34751
2.32163
2.30073
2.28628
2.27576
2.26811
2.26033
2.24961
2.23903
2.22796
2.21385
2.19704
2.17759
2.158
2.13869
2.12169
2.10921
2.09582
2.08168
2.06922
2.05335
2.03594
2.0214
2.00635
1.99255
1.97956
1.95985
1.93942
1.92322
1.90367
1.88256
1.86442
1.84553
1.82584
1.80978
1.79676
1.78406
1.77165
1.75789
1.74403
1.731
1.71436
1.6982
1.68556
1.66829
1.64915
1.63563
1.62044
1.60073
1.5833
1.56561
1.54555
1.52596
1.50475
1.48363
1.46263
1.43851
1.41714
1.39945
1.38012
1.36229
1.34696
1.32884
1.30717
1.28458
1.26234
1.24168
1.22404
1.20845
1.19161
1.17308
1.15555
1.13978
1.12576
1.11142
1.09371
1.07564
1.05799
1.03881
1.02119
1.00465
0.9871
0.969309
0.949975
0.931112
0.914905
0.898575
0.882663
0.868612
0.853549
0.836676
0.820348
0.806103
0.792761
0.779467
0.768016
0.756633
0.742827
0.728277
0.712182
0.695012
0.678331
0.659966
0.642037
0.62415
0.601751
0.578449
0.55723
0.537375
0.520891
0.507856
0.496241
0.482843
0.466785
0.452541
0.439733
0.425106
0.410103
0.392974
0.372092
0.349782
0.326935
0.305015
0.284708
0.266537
0.250354
0.233509
0.218051
0.20566
0.193933
0.18237
0.169073
0.152337
0.134995
0.117759
0.100069
0.0832377
0.0675945
0.0534726
0.039324
0.0226159
0.00703046
-1.05871
-3222.31
-1033.94
542.175
497.392
28.4691
-132.113
-54.8326
21.58
27.9419
7.79234
-1.80065
0.470401
4.15886
4.88769
4.06326
3.52195
3.54555
3.69362
3.72847
3.69068
3.65336
3.63363
3.627
3.61758
3.60336
3.58922
3.57069
3.55033
3.53542
3.52362
3.50696
3.49281
3.47741
3.45486
3.44154
3.43233
3.41539
3.39702
3.37631
3.35945
3.35062
3.34049
3.33163
3.31745
3.29419
3.2806
3.27501
3.26562
3.25486
3.23807
3.21568
3.2013
3.19558
3.18902
3.17775
3.16106
3.1398
3.11942
3.10406
3.09109
3.0778
3.06362
3.04701
3.0277
3.00987
2.99739
2.98769
2.9743
2.95949
2.94676
2.92987
2.91029
2.89463
2.87828
2.86179
2.85066
2.83859
2.82119
2.80248
2.78183
2.75845
2.73966
2.72766
2.71672
2.70513
2.69409
2.68057
2.66147
2.64109
2.62432
2.61081
2.6016
2.59503
2.58533
2.57156
2.5557
2.53724
2.51523
2.49347
2.4755
2.46089
2.45038
2.44098
2.42694
2.41045
2.39339
2.37162
2.34672
2.32432
2.30511
2.2885
2.27584
2.26793
2.26063
2.25053
2.24053
2.22861
2.2126
2.19554
2.17588
2.15631
2.14049
2.12501
2.11048
2.09655
2.08179
2.06858
2.05421
2.03854
2.02463
2.00761
1.98981
1.97678
1.96047
1.94035
1.92306
1.90385
1.8815
1.8618
1.84471
1.82724
1.81054
1.79701
1.78476
1.77238
1.75946
1.74516
1.73103
1.71559
1.69878
1.68556
1.67189
1.65235
1.63399
1.61843
1.59991
1.58182
1.56515
1.54612
1.52591
1.50371
1.48153
1.46175
1.43945
1.41745
1.40027
1.38236
1.3625
1.345
1.32844
1.30854
1.28579
1.26362
1.24267
1.22314
1.20678
1.19142
1.17442
1.15804
1.14157
1.12437
1.10918
1.09331
1.07604
1.05945
1.04099
1.02203
1.00408
0.98579
0.968221
0.949711
0.931306
0.916176
0.900724
0.884204
0.868901
0.853123
0.836365
0.820528
0.807514
0.796216
0.782879
0.768668
0.755209
0.741367
0.728127
0.712886
0.695104
0.678759
0.660786
0.640932
0.622021
0.600712
0.578463
0.558079
0.538753
0.521432
0.505503
0.492575
0.482656
0.469413
0.45452
0.441935
0.42721
0.409435
0.390804
0.371037
0.350406
0.328863
0.307331
0.28605
0.266169
0.249629
0.233546
0.218094
0.205811
0.194354
0.182877
0.170336
0.153283
0.134625
0.11732
0.0994708
0.0822397
0.0669667
0.0531141
0.0396333
0.0252235
0.00914638
-1.06123
-3222.31
-1033.93
542.175
497.387
28.469
-132.113
-54.8346
21.5798
27.9452
7.79399
-1.80342
0.463202
4.15263
4.89099
4.0674
3.51573
3.53729
3.6967
3.74174
3.69632
3.64475
3.62814
3.63154
3.62396
3.60673
3.58402
3.56069
3.54534
3.53504
3.52697
3.50948
3.48636
3.4716
3.45803
3.44467
3.43269
3.41274
3.38986
3.37262
3.36588
3.36207
3.34527
3.32281
3.30627
3.29339
3.28491
3.27986
3.26934
3.24989
3.22952
3.21304
3.20077
3.19557
3.19198
3.17768
3.15591
3.13593
3.12015
3.10743
3.09337
3.07783
3.0627
3.04599
3.02733
3.00949
2.9959
2.98785
2.97777
2.96198
2.94539
2.92684
2.90649
2.89094
2.87878
2.86601
2.85309
2.83747
2.81791
2.79816
2.7779
2.75666
2.73957
2.72973
2.72165
2.70944
2.69271
2.67478
2.65749
2.64056
2.62574
2.6151
2.60607
2.5959
2.58461
2.56965
2.55079
2.5323
2.51421
2.49518
2.47729
2.46113
2.44766
2.43781
2.42695
2.41193
2.39416
2.37188
2.34588
2.32225
2.30365
2.28897
2.27735
2.26959
2.26285
2.25197
2.23931
2.22633
2.2096
2.19182
2.17411
2.15646
2.14133
2.12597
2.11078
2.09721
2.08278
2.06963
2.05553
2.0381
2.02373
2.00869
1.98921
1.9739
1.95978
1.93924
1.91901
1.90184
1.88214
1.86123
1.84372
1.82771
1.81113
1.797
1.78449
1.77117
1.75862
1.74607
1.73308
1.71871
1.6998
1.68198
1.66899
1.65301
1.63478
1.6189
1.60078
1.58179
1.56401
1.54345
1.52255
1.50189
1.47999
1.46039
1.44033
1.4181
1.39935
1.38279
1.36391
1.34501
1.32729
1.30701
1.28439
1.26336
1.24394
1.22494
1.20756
1.19094
1.17285
1.15552
1.13987
1.1242
1.1098
1.09444
1.0764
1.05841
1.03948
1.02052
1.00292
0.984599
0.967995
0.952207
0.933697
0.915606
0.898689
0.882028
0.867775
0.854612
0.839891
0.823467
0.807854
0.795105
0.782172
0.76831
0.755462
0.742062
0.728338
0.712537
0.693249
0.676324
0.66024
0.641333
0.622555
0.600934
0.5767
0.555484
0.537044
0.521181
0.506585
0.492623
0.481403
0.468929
0.454146
0.440623
0.42597
0.409568
0.392878
0.373678
0.351519
0.328223
0.306288
0.286168
0.266433
0.248564
0.233272
0.219405
0.206826
0.194327
0.181455
0.168437
0.15346
0.135934
0.117059
0.09801
0.0809898
0.0669563
0.0537674
0.0384972
0.0226214
0.0076955
-1.06129
-3222.31
-1033.94
542.172
497.388
28.465
-132.119
-54.8335
21.581
27.9401
7.79115
-1.80675
0.463621
4.161
4.89166
4.05991
3.51412
3.54223
3.70103
3.73848
3.68886
3.64629
3.63876
3.63705
3.61923
3.59681
3.58034
3.56645
3.55641
3.5442
3.52151
3.49598
3.4814
3.47666
3.46838
3.45024
3.42797
3.40639
3.38975
3.38005
3.37158
3.36064
3.3413
3.31877
3.30665
3.29886
3.29066
3.28298
3.26517
3.24197
3.22663
3.21587
3.2066
3.20003
3.1895
3.17067
3.15103
3.13591
3.12256
3.1115
3.09985
3.08183
3.06059
3.04196
3.02712
3.01317
3.00131
2.9921
2.97956
2.9607
2.94108
2.92341
2.90754
2.89535
2.88318
2.86729
2.85063
2.83465
2.81608
2.79592
2.77713
2.75957
2.74376
2.73073
2.72083
2.70976
2.69403
2.67623
2.6588
2.64165
2.6258
2.61496
2.60746
2.59775
2.58663
2.57233
2.55134
2.5298
2.5107
2.49202
2.47711
2.46511
2.45176
2.43982
2.42705
2.40935
2.3909
2.37078
2.34702
2.32537
2.3068
2.29073
2.27926
2.2703
2.26152
2.25166
2.23969
2.2258
2.20924
2.19124
2.17264
2.15485
2.14176
2.12918
2.11379
2.09896
2.08351
2.0693
2.05645
2.0402
2.02462
2.0093
1.98991
1.97283
1.95771
1.93878
1.91933
1.9011
1.8816
1.86125
1.84273
1.82739
1.81271
1.79814
1.78559
1.77307
1.75996
1.74622
1.73168
1.71874
1.70347
1.68447
1.66868
1.65296
1.63375
1.61704
1.60131
1.58305
1.56351
1.54212
1.52134
1.5014
1.47912
1.45826
1.43999
1.42014
1.40061
1.38359
1.36551
1.34509
1.32532
1.30625
1.28621
1.26602
1.24589
1.22516
1.20586
1.18921
1.17304
1.15731
1.14196
1.12506
1.10864
1.0931
1.07569
1.05847
1.04122
1.02242
1.00341
0.983503
0.965505
0.950687
0.934553
0.918096
0.902354
0.885137
0.868173
0.852698
0.838738
0.825477
0.811337
0.797769
0.783776
0.768365
0.754242
0.740244
0.726616
0.7132
0.695744
0.677876
0.660845
0.640335
0.61943
0.598355
0.576558
0.557273
0.538661
0.521278
0.505609
0.490194
0.479209
0.47032
0.45748
0.442574
0.426279
0.408428
0.391074
0.373306
0.353541
0.331527
0.308492
0.28599
0.264789
0.246692
0.23273
0.221515
0.210844
0.197626
0.182239
0.167771
0.152617
0.13462
0.115748
0.0975514
0.0812151
0.0669991
0.0527057
0.0387284
0.0247618
0.00884978
-1.06462
-3222.31
-1033.94
542.174
497.385
28.4659
-132.117
-54.8336
21.5824
27.9378
7.78919
-1.80139
0.46555
4.1502
4.88066
4.06296
3.52196
3.54729
3.70164
3.73343
3.68711
3.65089
3.64144
3.63504
3.61881
3.59948
3.58171
3.5685
3.55483
3.5338
3.51348
3.49943
3.48874
3.47902
3.46611
3.44621
3.42148
3.40282
3.39514
3.38833
3.37488
3.35724
3.33536
3.31653
3.30915
3.30292
3.29231
3.2784
3.25836
3.23931
3.22608
3.21672
3.21165
3.20163
3.18336
3.16406
3.14826
3.1364
3.1257
3.11389
3.09965
3.08155
3.06071
3.03997
3.02517
3.01499
3.00261
2.99177
2.98108
2.96185
2.93925
2.92137
2.90615
2.89279
2.88229
2.86878
2.85074
2.83313
2.81418
2.79277
2.77398
2.75947
2.7467
2.73463
2.72308
2.70889
2.69083
2.67292
2.65732
2.64293
2.62835
2.61709
2.6102
2.59965
2.58495
2.5686
2.54759
2.52623
2.50924
2.49326
2.4789
2.46662
2.45194
2.43733
2.42499
2.40909
2.39011
2.36991
2.34719
2.32521
2.30639
2.29149
2.28103
2.27164
2.26171
2.25081
2.23718
2.22257
2.20738
2.19038
2.17276
2.15544
2.14016
2.12687
2.1141
2.10214
2.08735
2.07102
2.05588
2.03817
2.02178
2.00859
1.99225
1.97316
1.95454
1.93598
1.91715
1.89845
1.88084
1.86251
1.84284
1.82669
1.8133
1.79902
1.7858
1.77287
1.75953
1.74691
1.73219
1.71773
1.70388
1.68555
1.66798
1.65262
1.63369
1.61572
1.60073
1.58313
1.56234
1.5399
1.51838
1.49946
1.47942
1.45805
1.43851
1.41904
1.39935
1.38298
1.36749
1.34739
1.32534
1.30483
1.28417
1.26426
1.24599
1.22731
1.20806
1.18938
1.17081
1.1538
1.13967
1.12495
1.10893
1.09327
1.07601
1.05815
1.04022
1.02056
1.00167
0.983255
0.965277
0.950315
0.935185
0.918763
0.903141
0.886469
0.869412
0.853376
0.838591
0.825529
0.812072
0.797986
0.784015
0.769151
0.754996
0.740706
0.725562
0.711251
0.694413
0.676417
0.660332
0.641141
0.619454
0.597613
0.575263
0.555497
0.537028
0.519987
0.505877
0.491038
0.478139
0.468556
0.456197
0.441696
0.426917
0.410145
0.392212
0.373132
0.352911
0.331718
0.308611
0.285347
0.265279
0.248291
0.233162
0.22091
0.20988
0.197029
0.183007
0.168781
0.152331
0.132925
0.113458
0.0966485
0.0814711
0.0674584
0.0535261
0.0380125
0.0229045
0.00803946
-1.06348
-3222.31
-1033.94
542.172
497.384
28.4665
-132.117
-54.8375
21.5763
27.9339
7.78779
-1.79768
0.468405
4.14992
4.88155
4.06807
3.52669
3.5418
3.69235
3.73223
3.69309
3.65707
3.64186
3.6278
3.61112
3.59969
3.58946
3.57429
3.55075
3.52748
3.51209
3.50376
3.49634
3.48052
3.45792
3.43914
3.42474
3.41088
3.40006
3.38868
3.37009
3.35171
3.33757
3.32297
3.31209
3.3057
3.29421
3.2742
3.25197
3.23729
3.22994
3.22275
3.21233
3.19676
3.17978
3.16542
3.14899
3.1348
3.12676
3.11778
3.10256
3.08062
3.05761
3.04039
3.02909
3.0202
3.00795
2.99292
2.97778
2.95923
2.93799
2.92093
2.90937
2.89727
2.88308
2.86834
2.84949
2.82803
2.80962
2.79309
2.77751
2.76415
2.75016
2.73422
2.72126
2.70912
2.69215
2.6732
2.65639
2.64406
2.63275
2.61986
2.61028
2.59983
2.58373
2.56776
2.54929
2.52661
2.50877
2.49419
2.47777
2.46528
2.45377
2.43902
2.4258
2.41028
2.38931
2.36798
2.34658
2.32607
2.30914
2.29477
2.28321
2.27311
2.26151
2.2495
2.23669
2.22097
2.20495
2.18978
2.17342
2.15609
2.1419
2.12926
2.11494
2.10238
2.08862
2.07237
2.05862
2.04201
2.02278
2.00731
1.99063
1.97129
1.95318
1.93583
1.91785
1.89807
1.879
1.86318
1.84538
1.82657
1.81273
1.79991
1.78668
1.77489
1.76168
1.7478
1.73286
1.71715
1.70287
1.68604
1.66825
1.65315
1.63578
1.61639
1.59875
1.58132
1.56223
1.54091
1.51851
1.4974
1.47734
1.45724
1.43858
1.42083
1.40202
1.38369
1.36655
1.34707
1.32526
1.30571
1.28762
1.26724
1.24625
1.22575
1.20618
1.18867
1.17192
1.15552
1.14086
1.12559
1.10873
1.0928
1.07539
1.05668
1.03881
1.02044
1.00286
0.985838
0.966724
0.949716
0.935354
0.919711
0.903802
0.888393
0.872647
0.856244
0.839895
0.825582
0.81212
0.798845
0.785744
0.770526
0.754866
0.739299
0.723305
0.710416
0.696719
0.678894
0.6612
0.64058
0.616407
0.594456
0.574376
0.556115
0.538354
0.520138
0.505624
0.492094
0.478021
0.466969
0.455702
0.442
0.42754
0.411299
0.392915
0.373797
0.353474
0.331218
0.307999
0.286107
0.267421
0.250877
0.235104
0.221712
0.210834
0.199312
0.18482
0.167767
0.149242
0.130067
0.112491
0.0980441
0.0830843
0.065713
0.0511635
0.0395044
0.0247697
0.00858876
-1.06221
-3222.31
-1033.94
542.168
497.385
28.4697
-132.114
-54.8403
21.5733
27.9409
7.79536
-1.8029
0.45929
4.1491
4.88196
4.06597
3.52193
3.53792
3.70063
3.74145
3.69285
3.65187
3.63183
3.62484
3.6228
3.61047
3.58838
3.56455
3.54338
3.52922
3.51815
3.50713
3.49343
3.47239
3.45258
3.4403
3.42997
3.41635
3.40048
3.38317
3.36502
3.3508
3.34121
3.32997
3.31559
3.30229
3.28774
3.26921
3.25118
3.23935
3.23257
3.22439
3.21048
3.19185
3.17443
3.16249
3.14995
3.13803
3.12976
3.11666
3.09767
3.07826
3.06001
3.04361
3.02991
3.01933
3.00912
2.99412
2.97533
2.9566
2.93808
2.92163
2.91024
2.89828
2.88192
2.86548
2.84739
2.82591
2.80736
2.79276
2.77876
2.76565
2.75205
2.73557
2.72002
2.70624
2.69065
2.67416
2.65701
2.64277
2.63335
2.62273
2.61147
2.60028
2.58403
2.56408
2.54391
2.52442
2.50894
2.49572
2.48015
2.46552
2.45235
2.43771
2.42427
2.40887
2.38829
2.36728
2.34684
2.32693
2.31049
2.2965
2.2836
2.27259
2.26069
2.24706
2.23369
2.21924
2.20411
2.18944
2.17338
2.15588
2.14088
2.12866
2.11639
2.10503
2.09116
2.07264
2.05672
2.04153
2.02332
2.00666
1.98954
1.96977
1.95105
1.93372
1.91657
1.89829
1.87856
1.86096
1.84471
1.82773
1.81412
1.80176
1.78744
1.77388
1.76018
1.74751
1.73424
1.71754
1.70204
1.68633
1.66813
1.65189
1.63559
1.61666
1.59786
1.57896
1.55944
1.53959
1.51817
1.49686
1.47733
1.45672
1.43572
1.41822
1.40193
1.38412
1.36635
1.34785
1.3268
1.30599
1.28655
1.2663
1.24617
1.22634
1.20578
1.18732
1.17129
1.15546
1.14026
1.1246
1.10763
1.09162
1.07534
1.05635
1.03802
1.01921
1.00012
0.983728
0.967064
0.951139
0.93748
0.921405
0.904108
0.888528
0.873289
0.85769
0.841591
0.826353
0.811904
0.797898
0.784865
0.770476
0.754878
0.740268
0.724539
0.709248
0.69502
0.67746
0.65908
0.63953
0.616418
0.594705
0.574325
0.554783
0.537244
0.519291
0.504766
0.493039
0.478647
0.465371
0.453794
0.440737
0.426879
0.411357
0.393676
0.37467
0.353158
0.32974
0.307639
0.287458
0.268581
0.251406
0.236223
0.222871
0.21078
0.198568
0.183988
0.167204
0.14909
0.130565
0.112124
0.0946442
0.0803381
0.0653335
0.0513997
0.038826
0.0240117
0.00848406
-1.06052
-3222.31
-1033.94
542.171
497.389
28.4656
-132.122
-54.8405
21.5776
27.939
7.78359
-1.80919
0.465575
4.15622
4.88625
4.06476
3.51943
3.54036
3.70318
3.74061
3.69079
3.65118
3.63581
3.6295
3.62243
3.60787
3.58499
3.56118
3.54479
3.53511
3.52213
3.5064
3.48863
3.46817
3.4542
3.44403
3.43261
3.41793
3.39806
3.38009
3.36523
3.35351
3.34625
3.33414
3.31587
3.29891
3.28385
3.26902
3.2551
3.24418
3.23384
3.21908