/*--------------------------------*- C++ -*----------------------------------*\
| =========                 |                                                 |
| \\      /  F ield         | OpenFOAM: The Open Source CFD Toolbox           |
|  \\    /   O peration     | Version:  2406                                  |
|   \\  /    A nd           | Website:  www.openfoam.com                      |
|    \\/     M anipulation  |                                                 |
\*---------------------------------------------------------------------------*/
FoamFile
{
    version     2.0;
    format      ascii;
    arch        "LSB;label=32;scalar=64";
    class       surfaceScalarField;
    location    "1.55";
    object      phi;
}
// * * * * * * * * * * * * * * * * * * * * * * * * * * * * * * * * * * * * * //

dimensions      [0 3 -1 0 0 0 0];

oriented        oriented;

internalField   nonuniform List<scalar> 
12225
(
0.510974
1.68567e-06
0.510968
6.20248e-06
0.51096
7.2651e-06
0.510955
5.22884e-06
0.510951
4.6279e-06
0.510945
5.16108e-06
0.51094
5.44506e-06
0.510934
5.59633e-06
0.510929
5.35974e-06
0.510924
5.28882e-06
0.510918
5.83968e-06
0.510912
5.78905e-06
0.510907
5.33832e-06
0.510901
5.36012e-06
0.510896
5.38312e-06
0.510891
5.17569e-06
0.510886
4.89744e-06
0.510881
4.87641e-06
0.510876
5.20987e-06
0.51087
5.39098e-06
0.510865
5.28862e-06
0.51086
5.44461e-06
0.510854
5.99301e-06
0.510848
6.15371e-06
0.510842
5.69901e-06
0.510837
5.13121e-06
0.510832
4.99951e-06
0.510826
5.4009e-06
0.510821
5.39141e-06
0.510816
5.02677e-06
0.510811
5.1748e-06
0.510805
5.64366e-06
0.510799
5.92957e-06
0.510793
5.92903e-06
0.510787
5.80018e-06
0.510782
5.37755e-06
0.510777
4.84684e-06
0.510772
4.8985e-06
0.510767
5.31957e-06
0.510761
5.56873e-06
0.510756
5.50016e-06
0.510751
5.38611e-06
0.510745
5.66799e-06
0.510739
5.94745e-06
0.510733
5.83728e-06
0.510727
5.88421e-06
0.510721
5.94504e-06
0.510716
5.6545e-06
0.51071
5.5491e-06
0.510704
5.66314e-06
0.510699
5.62051e-06
0.510693
5.63714e-06
0.510687
5.72932e-06
0.510682
5.51229e-06
0.510677
5.02811e-06
0.510672
4.76743e-06
0.510667
5.08856e-06
0.510661
5.62642e-06
0.510656
5.74185e-06
0.51065
5.52673e-06
0.510645
5.25733e-06
0.51064
5.02889e-06
0.510635
5.09425e-06
0.510629
5.35703e-06
0.510624
5.52134e-06
0.510618
5.53023e-06
0.510613
5.36602e-06
0.510608
5.17719e-06
0.510603
5.24081e-06
0.510597
5.46617e-06
0.510592
5.43188e-06
0.510586
5.19806e-06
0.510581
5.15939e-06
0.510576
5.26754e-06
0.510571
5.3558e-06
0.510565
5.48113e-06
0.510559
5.73199e-06
0.510553
5.92352e-06
0.510548
5.8598e-06
0.510542
5.66885e-06
0.510537
5.34846e-06
0.510531
5.16408e-06
0.510526
5.43329e-06
0.51052
5.58577e-06
0.510515
5.45095e-06
0.51051
5.46451e-06
0.510504
5.36273e-06
0.510499
5.11016e-06
0.510494
5.18353e-06
0.510488
5.41702e-06
0.510483
5.59972e-06
0.510477
5.87622e-06
0.510471
6.07731e-06
0.510465
6.07382e-06
0.510459
5.89642e-06
0.510453
5.59545e-06
0.510448
5.47913e-06
0.510442
5.62111e-06
0.510436
5.82319e-06
0.51043
6.01822e-06
0.510424
5.95717e-06
0.510419
5.50559e-06
0.510414
5.08243e-06
0.510409
4.93456e-06
0.510404
4.92137e-06
0.510399
5.06338e-06
0.510394
5.32644e-06
0.510388
5.54166e-06
0.510382
5.7892e-06
0.510376
5.97758e-06
0.51037
5.81396e-06
0.510365
5.50199e-06
0.51036
5.37046e-06
0.510354
5.32417e-06
0.510349
5.31203e-06
0.510344
5.38033e-06
0.510338
5.34073e-06
0.510333
5.14797e-06
0.510328
5.03551e-06
0.510323
5.09974e-06
0.510318
5.19083e-06
0.510313
5.16589e-06
0.510307
5.12304e-06
0.510302
5.22453e-06
0.510297
5.44358e-06
0.510291
5.69295e-06
0.510285
5.88735e-06
0.510279
5.86323e-06
0.510274
5.57793e-06
0.510268
5.29365e-06
0.510263
5.19168e-06
0.510258
5.23281e-06
0.510253
5.4625e-06
0.510247
5.75048e-06
0.510241
5.81338e-06
0.510235
5.70764e-06
0.51023
5.56188e-06
0.510224
5.42796e-06
0.510219
5.44137e-06
0.510213
5.54941e-06
0.510208
5.56381e-06
0.510202
5.49594e-06
0.510197
5.46803e-06
0.510191
5.41251e-06
0.510186
5.31361e-06
0.510181
5.43324e-06
0.510175
5.72228e-06
0.510169
5.85358e-06
0.510163
5.81445e-06
0.510158
5.71163e-06
0.510152
5.49744e-06
0.510147
5.18535e-06
0.510142
4.96946e-06
0.510137
4.96962e-06
0.510132
5.02275e-06
0.510127
5.03808e-06
0.510122
5.17118e-06
0.510116
5.44079e-06
0.510111
5.57286e-06
0.510105
5.42098e-06
0.5101
5.19081e-06
0.510095
5.01204e-06
0.51009
4.9026e-06
0.510085
5.01228e-06
0.51008
5.30609e-06
0.510074
5.58813e-06
0.510068
5.76869e-06
0.510063
5.79486e-06
0.510057
5.73316e-06
0.510051
5.60481e-06
0.510046
5.29638e-06
0.510041
4.98137e-06
0.510036
4.93058e-06
0.510031
5.10343e-06
0.510026
5.38737e-06
0.51002
5.69078e-06
0.510014
5.81884e-06
0.510009
5.64318e-06
0.510003
5.30158e-06
0.509998
5.02453e-06
0.509993
4.89446e-06
0.509988
4.95196e-06
0.509983
5.19757e-06
0.509978
5.49063e-06
0.509972
5.69865e-06
0.509966
5.70555e-06
0.509961
5.48653e-06
0.509955
5.27488e-06
0.50995
5.17522e-06
0.509945
5.12352e-06
0.50994
5.2024e-06
0.509935
5.38083e-06
0.509929
5.53399e-06
0.509923
5.60853e-06
0.509918
5.55822e-06
0.509912
5.50634e-06
0.509907
5.49253e-06
0.509902
5.38347e-06
0.509896
5.29734e-06
0.509891
5.33182e-06
0.509885
5.39491e-06
0.50988
5.51866e-06
0.509874
5.66746e-06
0.509869
5.71599e-06
0.509863
5.64153e-06
0.509857
5.52427e-06
0.509852
5.49423e-06
0.509846
5.45331e-06
0.509841
5.29998e-06
0.509836
5.25748e-06
0.509831
5.39995e-06
0.509825
5.54019e-06
0.509819
5.56349e-06
0.509814
5.49683e-06
0.509809
5.38096e-06
0.509803
5.19789e-06
0.509798
5.09249e-06
0.509793
5.15073e-06
0.509788
5.20307e-06
0.509783
5.23124e-06
0.509777
5.27522e-06
0.509772
5.25606e-06
0.509767
5.18378e-06
0.509762
5.15408e-06
0.509757
5.26348e-06
0.509751
5.44815e-06
0.509746
5.514e-06
0.50974
5.39401e-06
0.509735
5.21946e-06
0.50973
5.15987e-06
0.509725
5.20712e-06
0.509719
5.25463e-06
0.509714
5.29675e-06
0.509709
5.39753e-06
0.509703
5.55938e-06
0.509697
5.67715e-06
0.509692
5.68523e-06
0.509686
5.64018e-06
0.50968
5.63955e-06
0.509675
5.65341e-06
0.509669
5.49274e-06
0.509664
5.17434e-06
0.509659
4.95969e-06
0.509654
5.0029e-06
0.509649
5.28961e-06
0.509643
5.64674e-06
0.509637
5.89151e-06
0.509631
5.97157e-06
0.509625
6.51308e-06
5.90754e-06
0.510979
-6.71092e-08
0.510985
2.33433e-07
0.510991
1.26492e-06
0.510993
2.659e-06
0.510995
3.1088e-06
0.510997
2.68106e-06
0.511
2.27329e-06
0.511004
1.95152e-06
0.511007
2.06952e-06
0.51101
2.20818e-06
0.511014
2.20111e-06
0.511017
2.62341e-06
0.51102
2.79627e-06
0.511023
2.3123e-06
0.511026
2.04345e-06
0.511029
2.55328e-06
0.511031
2.8415e-06
0.511033
2.66324e-06
0.511036
2.67078e-06
0.511038
2.83009e-06
0.511041
2.8258e-06
0.511044
2.49712e-06
0.511047
2.24387e-06
0.511051
2.32923e-06
0.511055
2.3074e-06
0.511057
2.2452e-06
0.51106
2.29648e-06
0.511063
2.27232e-06
0.511066
2.43798e-06
0.511068
2.76388e-06
0.511071
2.71394e-06
0.511074
2.42931e-06
0.511078
2.48503e-06
0.511081
2.46316e-06
0.511085
2.12947e-06
0.511088
2.30715e-06
0.51109
2.8123e-06
0.511092
2.99004e-06
0.511094
2.76472e-06
0.511098
2.29154e-06
0.511101
1.99889e-06
0.511104
2.14426e-06
0.511108
2.37627e-06
0.511111
2.50409e-06
0.511114
2.40355e-06
0.511118
2.12818e-06
0.511122
2.16365e-06
0.511125
2.45815e-06
0.511128
2.55826e-06
0.511131
2.65796e-06
0.511134
2.94793e-06
0.511136
3.03321e-06
0.511139
2.73843e-06
0.511143
2.34619e-06
0.511145
2.24955e-06
0.511148
2.47329e-06
0.51115
2.72571e-06
0.511153
3.05117e-06
0.511155
3.27728e-06
0.511158
3.01522e-06
0.51116
2.5372e-06
0.511163
2.1649e-06
0.511166
1.91741e-06
0.51117
1.86794e-06
0.511174
1.8508e-06
0.511177
1.93433e-06
0.51118
2.36079e-06
0.511183
2.7751e-06
0.511185
2.75005e-06
0.511188
2.53077e-06
0.511191
2.42648e-06
0.511194
2.41047e-06
0.511197
2.39408e-06
0.511199
2.34852e-06
0.511202
2.41459e-06
0.511205
2.53579e-06
0.511209
2.51984e-06
0.511212
2.43474e-06
0.511216
2.26825e-06
0.511219
2.18106e-06
0.511222
2.36398e-06
0.511225
2.49245e-06
0.511228
2.54187e-06
0.511231
2.67646e-06
0.511233
2.68935e-06
0.511236
2.62717e-06
0.511239
2.57358e-06
0.511242
2.33255e-06
0.511245
2.10575e-06
0.511248
2.22498e-06
0.511251
2.49674e-06
0.511254
2.70758e-06
0.511258
2.79804e-06
0.511261
2.71487e-06
0.511264
2.56085e-06
0.511267
2.47705e-06
0.51127
2.64163e-06
0.511273
2.98842e-06
0.511276
3.01889e-06
0.511279
2.73627e-06
0.511282
2.65067e-06
0.511285
2.61952e-06
0.511288
2.33641e-06
0.511291
2.10726e-06
0.511294
2.0522e-06
0.511297
2.00642e-06
0.5113
2.13355e-06
0.511303
2.47502e-06
0.511306
2.80778e-06
0.511309
3.05595e-06
0.511312
3.11059e-06
0.511314
2.86388e-06
0.511317
2.50481e-06
0.51132
2.22344e-06
0.511323
1.99719e-06
0.511327
1.91025e-06
0.51133
2.07649e-06
0.511333
2.37426e-06
0.511335
2.58162e-06
0.511338
2.6822e-06
0.51134
2.82847e-06
0.511342
2.91198e-06
0.511345
2.76578e-06
0.511347
2.61384e-06
0.51135
2.57072e-06
0.511353
2.49382e-06
0.511357
2.43955e-06
0.51136
2.46889e-06
0.511363
2.46352e-06
0.511366
2.45675e-06
0.511369
2.51481e-06
0.511372
2.53387e-06
0.511375
2.55899e-06
0.511378
2.60283e-06
0.511381
2.49157e-06
0.511384
2.39844e-06
0.511387
2.4687e-06
0.51139
2.4793e-06
0.511393
2.48915e-06
0.511396
2.64853e-06
0.511399
2.79862e-06
0.511402
2.72841e-06
0.511405
2.48724e-06
0.511408
2.42294e-06
0.51141
2.56208e-06
0.511413
2.60341e-06
0.511416
2.63444e-06
0.511419
2.75494e-06
0.511423
2.77921e-06
0.511425
2.73289e-06
0.511428
2.77136e-06
0.511431
2.77393e-06
0.511433
2.61492e-06
0.511435
2.47267e-06
0.511438
2.44107e-06
0.511441
2.37379e-06
0.511444
2.26102e-06
0.511447
2.29238e-06
0.51145
2.46779e-06
0.511453
2.48349e-06
0.511456
2.31409e-06
0.511458
2.29719e-06
0.511461
2.41302e-06
0.511463
2.45714e-06
0.511466
2.54771e-06
0.511469
2.71654e-06
0.511472
2.71202e-06
0.511475
2.45816e-06
0.511479
2.29219e-06
0.511482
2.42127e-06
0.511485
2.6026e-06
0.511487
2.59206e-06
0.51149
2.46454e-06
0.511492
2.34589e-06
0.511496
2.24377e-06
0.511499
2.181e-06
0.511503
2.26164e-06
0.511506
2.42343e-06
0.511509
2.48217e-06
0.511511
2.46602e-06
0.511514
2.44095e-06
0.511516
2.3754e-06
0.511519
2.32588e-06
0.511522
2.31165e-06
0.511526
2.29387e-06
0.511529
2.30128e-06
0.511532
2.34561e-06
0.511535
2.47481e-06
0.511538
2.72181e-06
0.51154
2.85805e-06
0.511542
2.75495e-06
0.511545
2.51918e-06
0.511548
2.25658e-06
0.511552
2.17574e-06
0.511555
2.26314e-06
0.511558
2.3609e-06
0.511561
2.5689e-06
0.511564
2.74832e-06
0.511566
2.69754e-06
0.511569
2.57571e-06
0.511572
2.43405e-06
0.511575
2.27897e-06
0.511579
2.26907e-06
0.511582
2.41477e-06
0.511585
2.57952e-06
0.511588
2.65126e-06
0.511591
2.70217e-06
0.511593
2.82069e-06
0.511596
2.88385e-06
0.511598
2.80234e-06
0.511601
2.65241e-06
0.511604
2.65351e-06
0.511607
2.82344e-06
0.511609
2.85111e-06
0.511612
2.74176e-06
0.511614
2.68533e-06
0.511617
2.59428e-06
0.51162
2.51049e-06
0.511622
2.55131e-06
0.511625
2.60909e-06
0.511628
2.52089e-06
0.511631
2.289e-06
0.511634
2.10672e-06
0.511637
2.02327e-06
0.51164
1.93311e-06
0.511644
1.99426e-06
0.511647
2.33451e-06
0.511649
2.70175e-06
0.511652
2.8022e-06
0.511654
2.67946e-06
0.511657
2.52664e-06
0.51166
2.34908e-06
0.511663
2.13113e-06
0.511667
1.98584e-06
0.51167
1.96721e-06
0.511674
2.09054e-06
0.511677
2.39331e-06
0.51168
2.69649e-06
0.511683
2.762e-06
0.511686
2.70547e-06
0.511689
2.70947e-06
0.511691
2.65036e-06
0.511694
2.43544e-06
0.511696
2.27683e-06
0.511699
2.36677e-06
0.511702
2.5993e-06
0.511705
2.7431e-06
0.511709
2.77079e-06
0.511712
2.7231e-06
2.85728e-06
0.510978
2.93044e-07
0.510977
1.36219e-06
0.510976
1.67725e-06
0.510978
1.50393e-06
0.510979
1.2493e-06
0.510981
1.56088e-06
0.510981
2.0606e-06
0.510981
2.01581e-06
0.510981
1.92389e-06
0.510981
2.1327e-06
0.510981
2.42402e-06
0.510981
2.53113e-06
0.510981
2.14899e-06
0.510982
1.90301e-06
0.510982
1.98471e-06
0.510982
2.19804e-06
0.510982
2.7413e-06
0.510982
2.82891e-06
0.510983
2.23428e-06
0.510984
1.8539e-06
0.510984
2.12798e-06
0.510984
2.44491e-06
0.510984
2.18657e-06
0.510985
1.9403e-06
0.510985
2.22781e-06
0.510984
2.86203e-06
0.510983
3.14035e-06
0.510983
2.65567e-06
0.510983
2.07265e-06
0.510984
1.74889e-06
0.510985
1.91353e-06
0.510985
2.30017e-06
0.510986
2.09115e-06
0.510986
2.00966e-06
0.510986
2.46239e-06
0.510986
2.5768e-06
0.510986
2.14674e-06
0.510988
1.54742e-06
0.510989
1.42573e-06
0.510989
1.90214e-06
0.510989
2.25442e-06
0.510989
2.15677e-06
0.51099
2.03403e-06
0.51099
2.47853e-06
0.510989
2.99241e-06
0.510988
2.57725e-06
0.510989
1.88e-06
0.51099
1.64739e-06
0.51099
1.65348e-06
0.510991
2.21116e-06
0.510991
3.0913e-06
0.510991
3.11736e-06
0.510991
2.37637e-06
0.510991
1.92509e-06
0.510992
1.9154e-06
0.510992
1.94344e-06
0.510993
2.11578e-06
0.510993
2.56645e-06
0.510994
2.86466e-06
0.510994
2.73057e-06
0.510994
2.46159e-06
0.510994
2.23203e-06
0.510994
2.09021e-06
0.510994
2.10176e-06
0.510993
2.11192e-06
0.510993
2.08999e-06
0.510993
2.24988e-06
0.510994
2.46787e-06
0.510994
2.51471e-06
0.510994
2.38432e-06
0.510994
2.07388e-06
0.510995
1.74437e-06
0.510996
1.83094e-06
0.510996
2.17563e-06
0.510996
2.25788e-06
0.510997
2.00957e-06
0.510997
1.68376e-06
0.510998
1.75255e-06
0.510998
2.17644e-06
0.510998
2.45974e-06
0.510998
2.61986e-06
0.510998
2.60699e-06
0.510998
2.34426e-06
0.510998
2.28072e-06
0.510998
2.35256e-06
0.510999
2.23635e-06
0.510999
2.22313e-06
0.510999
2.42788e-06
0.510999
2.59134e-06
0.510998
2.70164e-06
0.510998
2.69054e-06
0.510998
2.42199e-06
0.510999
2.15856e-06
0.510999
2.18048e-06
0.511
2.27596e-06
0.511
2.20435e-06
0.511
2.14462e-06
0.511001
2.21729e-06
0.511002
2.31688e-06
0.511002
2.40445e-06
0.511002
2.42426e-06
0.511003
2.38072e-06
0.511003
2.34071e-06
0.511003
2.20163e-06
0.511003
1.9835e-06
0.511003
1.84206e-06
0.511003
1.85859e-06
0.511004
2.02041e-06
0.511004
2.28394e-06
0.511005
2.56692e-06
0.511005
2.6414e-06
0.511006
2.40715e-06
0.511006
2.11806e-06
0.511006
1.91577e-06
0.511007
1.72018e-06
0.511007
1.62947e-06
0.511007
1.76504e-06
0.511008
1.9644e-06
0.511008
2.11051e-06
0.511008
2.25507e-06
0.511009
2.37754e-06
0.511009
2.45057e-06
0.51101
2.48813e-06
0.51101
2.45909e-06
0.51101
2.33105e-06
0.51101
2.12902e-06
0.511011
1.91703e-06
0.511012
1.854e-06
0.511012
2.04617e-06
0.511012
2.30717e-06
0.511012
2.44052e-06
0.511012
2.44762e-06
0.511012
2.44288e-06
0.511012
2.55929e-06
0.511012
2.58932e-06
0.511012
2.44746e-06
0.511012
2.44339e-06
0.511012
2.44195e-06
0.511013
2.25098e-06
0.511013
2.16714e-06
0.511014
2.28511e-06
0.511014
2.3883e-06
0.511014
2.37448e-06
0.511014
2.38269e-06
0.511014
2.41125e-06
0.511015
2.25994e-06
0.511015
2.12211e-06
0.511016
2.24745e-06
0.511016
2.40491e-06
0.511016
2.42856e-06
0.511017
2.48588e-06
0.511017
2.56816e-06
0.511017
2.43895e-06
0.511017
2.17123e-06
0.511018
2.01023e-06
0.511018
1.90721e-06
0.511019
1.807e-06
0.511019
1.83642e-06
0.511019
2.02776e-06
0.51102
2.21271e-06
0.51102
2.27023e-06
0.51102
2.31377e-06
0.51102
2.38058e-06
0.51102
2.3679e-06
0.51102
2.29158e-06
0.511021
2.25206e-06
0.511021
2.29366e-06
0.511021
2.28317e-06
0.511021
2.14663e-06
0.511022
2.13848e-06
0.511022
2.36185e-06
0.511022
2.61022e-06
0.511022
2.77614e-06
0.511021
2.81721e-06
0.511021
2.66861e-06
0.51102
2.38358e-06
0.511021
2.16559e-06
0.511021
2.10454e-06
0.511021
2.06216e-06
0.511022
2.0356e-06
0.511022
2.10534e-06
0.511022
2.18314e-06
0.511022
2.30052e-06
0.511022
2.48033e-06
0.511022
2.55235e-06
0.511022
2.52868e-06
0.511021
2.45397e-06
0.511022
2.28509e-06
0.511022
2.19858e-06
0.511023
2.28588e-06
0.511023
2.42959e-06
0.511023
2.56152e-06
0.511023
2.57505e-06
0.511022
2.45161e-06
0.511022
2.23308e-06
0.511023
1.95472e-06
0.511024
1.90001e-06
0.511024
2.09943e-06
0.511025
2.20635e-06
0.511025
2.22025e-06
0.511025
2.25481e-06
0.511025
2.22357e-06
0.511025
2.13e-06
0.511026
2.10694e-06
0.511026
2.19602e-06
0.511027
2.1918e-06
0.511027
2.06367e-06
0.511028
2.06919e-06
0.511029
2.19787e-06
0.511029
2.30719e-06
0.511029
2.37132e-06
0.51103
2.45068e-06
0.51103
2.60773e-06
0.51103
2.65792e-06
0.51103
2.52481e-06
0.511031
2.3721e-06
0.511031
2.18818e-06
0.511031
2.01953e-06
0.511032
2.00187e-06
0.511032
2.12868e-06
0.511033
2.29246e-06
0.511033
2.34534e-06
0.511032
2.31006e-06
0.511032
2.21732e-06
0.511032
1.99709e-06
0.511032
1.82804e-06
0.511033
1.90272e-06
0.511033
2.13224e-06
0.511034
2.33695e-06
0.511034
2.42374e-06
0.511034
2.43886e-06
0.511034
2.42214e-06
0.511034
2.39886e-06
0.511033
2.3871e-06
0.511033
2.30979e-06
0.511033
2.1878e-06
0.511033
2.18059e-06
0.511034
2.29145e-06
0.511034
2.3217e-06
0.511035
2.23538e-06
0.511035
2.24942e-06
0.511035
2.37515e-06
0.511035
2.3614e-06
0.511035
2.16654e-06
0.511036
2.04241e-06
0.511036
2.13925e-06
0.511037
2.33409e-06
0.511037
2.39944e-06
0.511037
2.30234e-06
2.30926e-06
0.510978
1.24895e-07
0.510979
5.64453e-07
0.510979
1.21934e-06
0.510979
1.44778e-06
0.510979
1.34523e-06
0.510979
1.29514e-06
0.51098
1.60012e-06
0.51098
2.09039e-06
0.510979
2.2436e-06
0.510979
2.07499e-06
0.51098
1.88897e-06
0.510981
1.99274e-06
0.510981
2.13088e-06
0.51098
1.99422e-06
0.510981
1.94081e-06
0.510981
2.00556e-06
0.510982
1.7946e-06
0.510983
1.62861e-06
0.510983
1.93586e-06
0.510983
2.43314e-06
0.510982
2.49152e-06
0.510983
2.07094e-06
0.510983
1.58758e-06
0.510984
1.57542e-06
0.510984
1.83008e-06
0.510985
1.83858e-06
0.510986
1.76265e-06
0.510987
1.77586e-06
0.510987
2.08302e-06
0.510986
2.64939e-06
0.510986
2.69318e-06
0.510986
2.09179e-06
0.510986
1.65654e-06
0.510987
1.61986e-06
0.510987
1.74419e-06
0.510988
2.12208e-06
0.510988
2.28755e-06
0.510987
1.9527e-06
0.510987
1.61683e-06
0.510988
1.39634e-06
0.510988
1.44374e-06
0.510989
1.85232e-06
0.510988
2.22773e-06
0.510988
2.50164e-06
0.510989
2.50331e-06
0.510989
2.00257e-06
0.51099
1.59796e-06
0.51099
1.89437e-06
0.510989
2.37008e-06
0.510989
2.39925e-06
0.510989
2.33114e-06
0.51099
2.31803e-06
0.51099
2.11106e-06
0.51099
1.92171e-06
0.51099
2.07053e-06
0.51099
2.38377e-06
0.51099
2.41154e-06
0.51099
2.11819e-06
0.510991
1.9042e-06
0.510992
1.74984e-06
0.510993
1.5698e-06
0.510994
1.47024e-06
0.510994
1.42455e-06
0.510995
1.55307e-06
0.510995
1.8186e-06
0.510995
2.08942e-06
0.510995
2.35948e-06
0.510995
2.55763e-06
0.510995
2.36556e-06
0.510996
1.90658e-06
0.510996
1.64368e-06
0.510996
1.46593e-06
0.510997
1.40336e-06
0.510997
1.76605e-06
0.510997
2.17967e-06
0.510997
2.3189e-06
0.510996
2.16721e-06
0.510996
1.79072e-06
0.510997
1.59784e-06
0.510998
1.85888e-06
0.510998
2.34267e-06
0.510998
2.70895e-06
0.510997
2.76297e-06
0.510997
2.63281e-06
0.510997
2.32671e-06
0.510997
1.78775e-06
0.510998
1.43337e-06
0.510999
1.53808e-06
0.511
1.92227e-06
0.511
2.33208e-06
0.511
2.51657e-06
0.511
2.37258e-06
0.511001
1.93745e-06
0.511001
1.47075e-06
0.511002
1.50362e-06
0.511002
1.8646e-06
0.511003
1.98155e-06
0.511003
2.10819e-06
0.511003
2.40539e-06
0.511003
2.3923e-06
0.511003
2.15746e-06
0.511003
2.01954e-06
0.511004
1.84571e-06
0.511004
1.75531e-06
0.511004
1.92314e-06
0.511004
2.14158e-06
0.511003
2.27472e-06
0.511003
2.3825e-06
0.511003
2.37242e-06
0.511003
2.19768e-06
0.511004
2.09083e-06
0.511004
2.10178e-06
0.511004
1.95123e-06
0.511005
1.72879e-06
0.511005
1.70535e-06
0.511005
1.72822e-06
0.511005
1.71381e-06
0.511005
1.80362e-06
0.511005
1.96851e-06
0.511005
2.08232e-06
0.511005
2.10595e-06
0.511006
2.17697e-06
0.511006
2.29882e-06
0.511006
2.27379e-06
0.511006
2.17958e-06
0.511006
2.07076e-06
0.511006
1.76407e-06
0.511007
1.47273e-06
0.511007
1.50941e-06
0.511008
1.71639e-06
0.511008
1.95611e-06
0.511009
2.1846e-06
0.511009
2.18648e-06
0.511009
2.08372e-06
0.51101
2.07265e-06
0.51101
2.0229e-06
0.511011
2.05277e-06
0.511011
2.23532e-06
0.511011
2.3043e-06
0.511011
2.22863e-06
0.511011
2.10959e-06
0.511011
1.97726e-06
0.511012
1.91994e-06
0.511012
2.04383e-06
0.511012
2.3024e-06
0.511012
2.44811e-06
0.511012
2.38362e-06
0.511012
2.29131e-06
0.511012
2.30787e-06
0.511012
2.30094e-06
0.511012
2.14317e-06
0.511013
2.02988e-06
0.511013
2.03797e-06
0.511013
1.97145e-06
0.511014
1.93324e-06
0.511013
2.03246e-06
0.511013
1.99792e-06
0.511013
1.73514e-06
0.511014
1.55188e-06
0.511014
1.63399e-06
0.511015
1.82193e-06
0.511015
2.04161e-06
0.511015
2.31866e-06
0.511015
2.50706e-06
0.511015
2.44048e-06
0.511015
2.1874e-06
0.511015
2.04187e-06
0.511015
2.06972e-06
0.511016
2.03841e-06
0.511016
1.95605e-06
0.511016
1.98897e-06
0.511017
2.10103e-06
0.511017
2.20858e-06
0.511018
2.29748e-06
0.511018
2.3305e-06
0.511018
2.21399e-06
0.511018
1.92613e-06
0.511019
1.61732e-06
0.51102
1.43825e-06
0.51102
1.41513e-06
0.511021
1.53574e-06
0.511021
1.72722e-06
0.511022
1.85771e-06
0.511022
1.89553e-06
0.511023
1.88538e-06
0.511023
1.90583e-06
0.511024
2.01903e-06
0.511024
2.1231e-06
0.511024
2.15162e-06
0.511024
2.13227e-06
0.511025
2.03756e-06
0.511025
1.95297e-06
0.511026
1.94531e-06
0.511026
1.9859e-06
0.511027
2.07601e-06
0.511026
2.07852e-06
0.511026
1.99429e-06
0.511026
2.03875e-06
0.511026
2.0915e-06
0.511027
1.98221e-06
0.511027
1.84106e-06
0.511028
1.7247e-06
0.511028
1.68056e-06
0.511028
1.78832e-06
0.511029
2.02546e-06
0.511029
2.24049e-06
0.511028
2.25948e-06
0.511028
2.18251e-06
0.511028
2.16918e-06
0.511028
2.2187e-06
0.511028
2.26963e-06
0.511029
2.2716e-06
0.511029
2.29407e-06
0.511029
2.32454e-06
0.51103
2.26386e-06
0.51103
2.2397e-06
0.51103
2.29407e-06
0.511029
2.28498e-06
0.511029
2.15772e-06
0.511029
1.91395e-06
0.51103
1.67199e-06
0.511031
1.54895e-06
0.511031
1.57585e-06
0.511032
1.80661e-06
0.511032
2.11778e-06
0.511031
2.25726e-06
0.511031
2.17431e-06
0.511031
2.0113e-06
0.511032
1.89111e-06
0.511032
1.77863e-06
0.511033
1.63516e-06
0.511034
1.56638e-06
0.511035
1.63641e-06
0.511035
1.83202e-06
0.511035
2.1e-06
0.511035
2.28936e-06
0.511035
2.28407e-06
0.511035
2.13378e-06
0.511036
1.92303e-06
0.511036
1.6954e-06
0.511037
1.57039e-06
0.511038
1.69309e-06
0.511038
1.96962e-06
0.511038
2.13581e-06
0.511038
2.0522e-06
0.511038
1.8616e-06
0.511039
1.77677e-06
0.51104
1.76633e-06
0.51104
1.75841e-06
1.93678e-06
0.510978
-2.03947e-07
0.510979
1.08301e-07
0.510979
7.15199e-07
0.510979
1.50423e-06
0.510979
2.03729e-06
0.510978
1.85438e-06
0.510978
1.70167e-06
0.510978
1.63358e-06
0.510979
1.36885e-06
0.51098
1.5763e-06
0.51098
1.81165e-06
0.51098
1.60303e-06
0.510981
1.67246e-06
0.510981
2.11013e-06
0.51098
2.08946e-06
0.510981
1.40566e-06
0.510982
1.18457e-06
0.510982
1.60921e-06
0.510982
1.65854e-06
0.510983
1.39068e-06
0.510984
1.32531e-06
0.510985
1.68534e-06
0.510984
2.01406e-06
0.510984
1.81811e-06
0.510984
1.82736e-06
0.510984
1.90929e-06
0.510984
1.62262e-06
0.510984
2.0111e-06
0.510983
2.57085e-06
0.510984
2.10684e-06
0.510985
1.51689e-06
0.510986
1.40364e-06
0.510986
1.39071e-06
0.510986
1.68646e-06
0.510986
1.87798e-06
0.510986
1.53544e-06
0.510987
1.29979e-06
0.510988
1.312e-06
0.510988
1.27273e-06
0.510988
1.31167e-06
0.510988
1.49548e-06
0.510988
1.85726e-06
0.510988
2.1074e-06
0.510989
1.82982e-06
0.51099
1.55451e-06
0.51099
1.71086e-06
0.51099
1.91679e-06
0.51099
2.11108e-06
0.51099
2.37156e-06
0.51099
2.31512e-06
0.51099
1.94101e-06
0.510991
1.7713e-06
0.510991
1.9308e-06
0.510991
2.09098e-06
0.510991
2.10191e-06
0.510991
2.11361e-06
0.510991
2.17345e-06
0.510991
1.99685e-06
0.510992
1.61165e-06
0.510992
1.41783e-06
0.510992
1.50119e-06
0.510992
1.56629e-06
0.510992
1.3849e-06
0.510992
1.26294e-06
0.510993
1.49613e-06
0.510993
1.86162e-06
0.510993
2.06929e-06
0.510994
2.04226e-06
0.510994
1.80423e-06
0.510995
1.48566e-06
0.510995
1.32059e-06
0.510995
1.41354e-06
0.510995
1.53259e-06
0.510995
1.50058e-06
0.510996
1.45813e-06
0.510997
1.50766e-06
0.510997
1.54311e-06
0.510997
1.63797e-06
0.510997
1.84263e-06
0.510997
1.83686e-06
0.510998
1.77281e-06
0.510998
2.04584e-06
0.510999
2.22268e-06
0.511
2.05564e-06
0.511
1.92793e-06
0.511
1.74579e-06
0.511
1.54965e-06
0.511
1.7761e-06
0.510999
2.11742e-06
0.511
2.10652e-06
0.511
2.04176e-06
0.511
2.1158e-06
0.511
2.08136e-06
0.511
1.96386e-06
0.510999
1.93099e-06
0.510999
1.9218e-06
0.510999
1.88395e-06
0.511
1.85953e-06
0.511
1.91334e-06
0.511001
1.98642e-06
0.511001
1.89563e-06
0.511001
1.74327e-06
0.511001
1.67833e-06
0.511002
1.49949e-06
0.511002
1.26107e-06
0.511003
1.23867e-06
0.511004
1.463e-06
0.511004
1.88337e-06
0.511004
2.27754e-06
0.511004
2.26893e-06
0.511005
1.88875e-06
0.511005
1.44601e-06
0.511006
1.08278e-06
0.511007
9.81735e-07
0.511007
1.23313e-06
0.511008
1.49831e-06
0.511008
1.61199e-06
0.511008
1.76955e-06
0.511008
1.95093e-06
0.511008
2.05065e-06
0.511008
2.0878e-06
0.511008
2.06366e-06
0.511008
2.03594e-06
0.511009
1.92677e-06
0.511009
1.6844e-06
0.51101
1.58439e-06
0.51101
1.66326e-06
0.511009
1.68767e-06
0.511009
1.70206e-06
0.511009
1.77554e-06
0.511009
1.89138e-06
0.511009
2.07568e-06
0.511009
2.10201e-06
0.51101
1.94992e-06
0.51101
1.94454e-06
0.51101
1.9616e-06
0.51101
1.89999e-06
0.51101
1.96844e-06
0.51101
2.01814e-06
0.511011
1.92555e-06
0.511011
1.84838e-06
0.511011
1.85438e-06
0.511011
1.87658e-06
0.511011
1.84345e-06
0.511012
1.86827e-06
0.511012
2.00365e-06
0.511013
2.05665e-06
0.511013
1.98401e-06
0.511013
1.96458e-06
0.511014
2.00177e-06
0.511014
1.93773e-06
0.511014
1.86745e-06
0.511014
1.85301e-06
0.511014
1.66499e-06
0.511015
1.36704e-06
0.511016
1.31761e-06
0.511016
1.47741e-06
0.511016
1.59786e-06
0.511016
1.63517e-06
0.511016
1.68196e-06
0.511016
1.7319e-06
0.511017
1.76013e-06
0.511017
1.87689e-06
0.511017
2.10878e-06
0.511018
2.2161e-06
0.511018
2.02279e-06
0.511018
1.79358e-06
0.511018
1.80508e-06
0.511018
1.87923e-06
0.511019
1.86579e-06
0.511019
1.85546e-06
0.511019
1.84491e-06
0.511019
1.78273e-06
0.51102
1.67765e-06
0.511021
1.60051e-06
0.511021
1.56833e-06
0.511022
1.45058e-06
0.511022
1.30106e-06
0.511022
1.28895e-06
0.511022
1.34501e-06
0.511022
1.42625e-06
0.511023
1.53903e-06
0.511023
1.57883e-06
0.511023
1.58767e-06
0.511023
1.66735e-06
0.511024
1.80731e-06
0.511024
2.01221e-06
0.511024
2.1652e-06
0.511024
2.141e-06
0.511024
2.02356e-06
0.511024
1.93504e-06
0.511024
1.93106e-06
0.511024
1.94549e-06
0.511024
1.94937e-06
0.511024
2.04098e-06
0.511024
2.07926e-06
0.511024
1.91484e-06
0.511024
1.72372e-06
0.511025
1.62379e-06
0.511025
1.61e-06
0.511025
1.72832e-06
0.511025
1.89261e-06
0.511025
1.88576e-06
0.511025
1.70487e-06
0.511025
1.60705e-06
0.511026
1.72887e-06
0.511026
1.90979e-06
0.511026
2.05915e-06
0.511026
2.1627e-06
0.511026
2.24067e-06
0.511026
2.31453e-06
0.511026
2.20331e-06
0.511027
1.96767e-06
0.511027
1.85944e-06
0.511028
1.79727e-06
0.511028
1.74393e-06
0.511029
1.78342e-06
0.511029
1.81865e-06
0.511029
1.75296e-06
0.51103
1.60546e-06
0.51103
1.50721e-06
0.51103
1.44928e-06
0.51103
1.33548e-06
0.511031
1.35333e-06
0.511031
1.55661e-06
0.511032
1.69669e-06
0.511032
1.68745e-06
0.511033
1.63854e-06
0.511033
1.64265e-06
0.511033
1.62759e-06
0.511033
1.52559e-06
0.511033
1.45262e-06
0.511034
1.43958e-06
0.511034
1.48927e-06
0.511034
1.70203e-06
0.511035
1.96025e-06
0.511035
2.0191e-06
0.511035
1.92618e-06
0.511035
1.86536e-06
0.511035
1.7858e-06
0.511035
1.56901e-06
0.511035
1.37797e-06
0.511036
1.45366e-06
0.511036
1.70355e-06
0.511036
1.84608e-06
0.511037
1.82754e-06
0.511037
1.7845e-06
0.511037
1.72868e-06
0.511037
1.6511e-06
1.72503e-06
0.510978
-8.44916e-08
0.510978
-1.10081e-07
0.510978
5.49561e-07
0.510979
1.29958e-06
0.510979
1.31561e-06
0.51098
1.11727e-06
0.510981
9.97902e-07
0.510981
1.20808e-06
0.510981
1.41378e-06
0.510981
1.41097e-06
0.510982
1.49628e-06
0.510982
1.53164e-06
0.510982
1.4692e-06
0.510983
1.26271e-06
0.510984
1.39292e-06
0.510983
1.74207e-06
0.510983
1.56677e-06
0.510983
1.46929e-06
0.510983
1.75004e-06
0.510982
1.73815e-06
0.510982
1.40883e-06
0.510983
1.41474e-06
0.510983
1.84356e-06
0.510983
2.07348e-06
0.510983
1.67609e-06
0.510983
1.32096e-06
0.510984
1.3905e-06
0.510984
1.45009e-06
0.510985
1.40048e-06
0.510986
1.54593e-06
0.510986
1.78133e-06
0.510985
1.75787e-06
0.510985
1.44461e-06
0.510986
1.28262e-06
0.510986
1.44833e-06
0.510986
1.50261e-06
0.510986
1.31637e-06
0.510986
1.14158e-06
0.510986
1.08471e-06
0.510986
1.24976e-06
0.510986
1.65304e-06
0.510986
2.09713e-06
0.510986
2.00463e-06
0.510987
1.12389e-06
0.510988
4.1996e-07
0.510989
5.4122e-07
0.51099
1.15806e-06
0.51099
1.9439e-06
0.51099
2.39954e-06
0.51099
2.07887e-06
0.510991
1.43178e-06
0.510991
1.28226e-06
0.510992
1.56607e-06
0.510992
1.793e-06
0.510992
1.91624e-06
0.510992
2.01749e-06
0.510992
2.11719e-06
0.510992
2.05455e-06
0.510992
1.84086e-06
0.510992
1.71776e-06
0.510992
1.46694e-06
0.510992
1.0447e-06
0.510993
9.54413e-07
0.510993
1.30686e-06
0.510992
1.73242e-06
0.510992
1.98189e-06
0.510993
1.72789e-06
0.510993
1.24367e-06
0.510994
1.15854e-06
0.510994
1.17186e-06
0.510995
1.05048e-06
0.510995
1.16831e-06
0.510995
1.30329e-06
0.510995
1.23726e-06
0.510996
1.2592e-06
0.510996
1.23227e-06
0.510996
1.1015e-06
0.510997
1.20034e-06
0.510997
1.41708e-06
0.510997
1.57025e-06
0.510997
1.77275e-06
0.510998
1.98974e-06
0.510998
2.01521e-06
0.510998
1.80373e-06
0.510998
1.58756e-06
0.510999
1.46571e-06
0.510999
1.39765e-06
0.510999
1.46441e-06
0.510999
1.68084e-06
0.511
1.87597e-06
0.511
1.98612e-06
0.511
2.00806e-06
0.511
1.82361e-06
0.511001
1.41006e-06
0.511001
1.13484e-06
0.511002
1.3295e-06
0.511002
1.70927e-06
0.511002
1.94429e-06
0.511002
2.07482e-06
0.511002
2.02435e-06
0.511002
1.68117e-06
0.511003
1.29928e-06
0.511003
1.09234e-06
0.511004
1.08931e-06
0.511004
1.28745e-06
0.511003
1.55875e-06
0.511003
1.75392e-06
0.511003
1.81806e-06
0.511004
1.75029e-06
0.511004
1.58823e-06
0.511005
1.37456e-06
0.511005
1.20527e-06
0.511005
1.13018e-06
0.511005
1.07864e-06
0.511005
1.11617e-06
0.511005
1.23971e-06
0.511006
1.27141e-06
0.511006
1.30587e-06
0.511007
1.49433e-06
0.511007
1.72232e-06
0.511007
1.89965e-06
0.511007
1.9479e-06
0.511007
1.85008e-06
0.511008
1.66517e-06
0.511008
1.38651e-06
0.511008
1.20952e-06
0.511009
1.31848e-06
0.511009
1.51724e-06
0.511009
1.61238e-06
0.511009
1.60254e-06
0.511009
1.55324e-06
0.51101
1.60515e-06
0.51101
1.69669e-06
0.511011
1.68459e-06
0.511011
1.72034e-06
0.511011
1.7622e-06
0.511011
1.64325e-06
0.511012
1.60513e-06
0.511012
1.72363e-06
0.511012
1.72637e-06
0.511012
1.59927e-06
0.511013
1.56269e-06
0.511013
1.64019e-06
0.511013
1.64848e-06
0.511013
1.63217e-06
0.511014
1.74341e-06
0.511014
1.87347e-06
0.511014
1.87354e-06
0.511014
1.80353e-06
0.511014
1.76837e-06
0.511014
1.66562e-06
0.511015
1.46462e-06
0.511015