/*--------------------------------*- C++ -*----------------------------------*\
| =========                 |                                                 |
| \\      /  F ield         | OpenFOAM: The Open Source CFD Toolbox           |
|  \\    /   O peration     | Version:  2406                                  |
|   \\  /    A nd           | Website:  www.openfoam.com                      |
|    \\/     M anipulation  |                                                 |
\*---------------------------------------------------------------------------*/
FoamFile
{
    version     2.0;
    format      ascii;
    arch        "LSB;label=32;scalar=64";
    class       volVectorField;
    location    "1.55";
    object      U;
}
// * * * * * * * * * * * * * * * * * * * * * * * * * * * * * * * * * * * * * //

dimensions      [0 1 -1 0 0 0 0];

internalField   nonuniform List<vector> 
6250
(
(50.5371 9.85158e-05 0)
(85.4376 0.000518937 0)
(73.2661 0.000782342 0)
(60.6227 0.00077467 0)
(59.8792 0.00071121 0)
(63.338 0.000697634 0)
(64.8471 0.000722175 0)
(64.3956 0.000785538 0)
(63.7785 0.000830897 0)
(63.676 0.000855312 0)
(63.8185 0.000886573 0)
(63.9026 0.000877446 0)
(63.8921 0.000827296 0)
(63.8626 0.000794929 0)
(63.8538 0.000793108 0)
(63.8585 0.000793518 0)
(63.8624 0.000763768 0)
(63.8619 0.000744147 0)
(63.86 0.000764961 0)
(63.8588 0.000785996 0)
(63.8583 0.000785721 0)
(63.8579 0.000805889 0)
(63.8572 0.000888272 0)
(63.8563 0.000976707 0)
(63.8555 0.000997949 0)
(63.8549 0.000948398 0)
(63.8543 0.000890537 0)
(63.8536 0.0008858 0)
(63.8529 0.000885325 0)
(63.8523 0.000848303 0)
(63.8517 0.000827905 0)
(63.851 0.000860017 0)
(63.8503 0.000918831 0)
(63.8495 0.000956312 0)
(63.8488 0.000954063 0)
(63.8481 0.000901249 0)
(63.8474 0.000811494 0)
(63.8469 0.000753075 0)
(63.8462 0.0007707 0)
(63.8455 0.000846587 0)
(63.8448 0.000925235 0)
(63.8441 0.00096596 0)
(63.8435 0.000982538 0)
(63.8427 0.00098579 0)
(63.842 0.000978526 0)
(63.8413 0.000992469 0)
(63.8405 0.00100846 0)
(63.8398 0.000985618 0)
(63.8391 0.000958405 0)
(63.8384 0.000957347 0)
(63.8377 0.0009578 0)
(63.837 0.000953956 0)
(63.8363 0.000953516 0)
(63.8355 0.000929871 0)
(63.8349 0.000869076 0)
(63.8343 0.000809206 0)
(63.8337 0.000806433 0)
(63.833 0.000860716 0)
(63.8323 0.000907974 0)
(63.8316 0.000920992 0)
(63.831 0.000918802 0)
(63.8303 0.000921347 0)
(63.8297 0.000950549 0)
(63.829 0.000997334 0)
(63.8283 0.00102768 0)
(63.8277 0.00102238 0)
(63.827 0.000983882 0)
(63.8263 0.000935524 0)
(63.8256 0.00090537 0)
(63.825 0.000896135 0)
(63.8243 0.000880176 0)
(63.8236 0.000856993 0)
(63.823 0.000859391 0)
(63.8223 0.000887231 0)
(63.8217 0.000914742 0)
(63.821 0.000932305 0)
(63.8203 0.000948579 0)
(63.8196 0.000961514 0)
(63.8188 0.000964828 0)
(63.8181 0.00096839 0)
(63.8174 0.000962205 0)
(63.8167 0.000947797 0)
(63.8161 0.000950669 0)
(63.8154 0.000946957 0)
(63.8147 0.000923523 0)
(63.814 0.000916314 0)
(63.8133 0.000924495 0)
(63.8127 0.000940657 0)
(63.8121 0.000984621 0)
(63.8114 0.00103301 0)
(63.8107 0.00104525 0)
(63.81 0.00102763 0)
(63.8092 0.00100499 0)
(63.8085 0.000993729 0)
(63.8077 0.000991271 0)
(63.807 0.00098471 0)
(63.8063 0.000979951 0)
(63.8057 0.000983645 0)
(63.8049 0.000995796 0)
(63.8042 0.00101749 0)
(63.8034 0.00102367 0)
(63.8027 0.000989191 0)
(63.802 0.000938118 0)
(63.8014 0.000902698 0)
(63.8008 0.000882423 0)
(63.8002 0.000878819 0)
(63.7996 0.000896867 0)
(63.7988 0.00092138 0)
(63.7982 0.000943393 0)
(63.7974 0.000961425 0)
(63.7966 0.000964095 0)
(63.796 0.000955026 0)
(63.7953 0.000949859 0)
(63.7946 0.000945591 0)
(63.794 0.000937519 0)
(63.7933 0.000932943 0)
(63.7926 0.000928365 0)
(63.7919 0.000915206 0)
(63.7913 0.00089893 0)
(63.7907 0.000889608 0)
(63.7901 0.000882299 0)
(63.7894 0.000867182 0)
(63.7887 0.00085942 0)
(63.7881 0.000877785 0)
(63.7875 0.000912163 0)
(63.7868 0.000946619 0)
(63.786 0.000977014 0)
(63.7853 0.0009971 0)
(63.7846 0.000999181 0)
(63.7839 0.00099354 0)
(63.7832 0.0009957 0)
(63.7826 0.00100374 0)
(63.7819 0.00101728 0)
(63.7812 0.00103389 0)
(63.7805 0.00103962 0)
(63.7798 0.00103669 0)
(63.7791 0.00103425 0)
(63.7784 0.00103144 0)
(63.7777 0.00102825 0)
(63.777 0.00101663 0)
(63.7763 0.000984375 0)
(63.7756 0.000942095 0)
(63.775 0.000917792 0)
(63.7743 0.000917607 0)
(63.7736 0.000925613 0)
(63.7729 0.000939703 0)
(63.7722 0.000961036 0)
(63.7715 0.00097647 0)
(63.7708 0.00098191 0)
(63.7701 0.000980489 0)
(63.7693 0.000962957 0)
(63.7687 0.000924713 0)
(63.7681 0.000887583 0)
(63.7674 0.000872532 0)
(63.7668 0.000869359 0)
(63.7662 0.000865943 0)
(63.7655 0.000874243 0)
(63.7649 0.00090172 0)
(63.7642 0.000927865 0)
(63.7635 0.000936565 0)
(63.7628 0.000942061 0)
(63.7622 0.000947586 0)
(63.7616 0.000938174 0)
(63.761 0.000921296 0)
(63.7603 0.000910848 0)
(63.7596 0.000911816 0)
(63.7589 0.000930611 0)
(63.7582 0.000966258 0)
(63.7575 0.00100803 0)
(63.7568 0.00102971 0)
(63.7561 0.00101205 0)
(63.7554 0.000979059 0)
(63.7548 0.000965686 0)
(63.7542 0.00097854 0)
(63.7535 0.00100575 0)
(63.7529 0.00103237 0)
(63.7521 0.00104229 0)
(63.7514 0.00102288 0)
(63.7507 0.000984014 0)
(63.7501 0.000953342 0)
(63.7495 0.000945034 0)
(63.7489 0.000957079 0)
(63.7482 0.000982841 0)
(63.7476 0.00101257 0)
(63.7468 0.0010408 0)
(63.7461 0.00105908 0)
(63.7454 0.00105408 0)
(63.7448 0.00102877 0)
(63.7441 0.000994366 0)
(63.7435 0.00096266 0)
(63.7428 0.000955354 0)
(63.7422 0.00097855 0)
(63.7415 0.00101518 0)
(63.7408 0.00104478 0)
(63.7401 0.00104954 0)
(63.7394 0.00103328 0)
(63.7387 0.00100834 0)
(63.738 0.000977038 0)
(63.7373 0.000956235 0)
(63.7367 0.000958221 0)
(63.736 0.000973316 0)
(63.7353 0.000994961 0)
(63.7347 0.00101573 0)
(63.7339 0.00102338 0)
(63.7332 0.0010125 0)
(63.7325 0.000991875 0)
(63.7318 0.000975145 0)
(63.7312 0.000953078 0)
(63.7305 0.000921453 0)
(63.7298 0.000910643 0)
(63.7292 0.00093588 0)
(63.7285 0.00097062 0)
(63.7278 0.00098103 0)
(63.7271 0.000963827 0)
(63.7264 0.000939583 0)
(63.7257 0.000917887 0)
(63.7251 0.000906512 0)
(63.7245 0.000911835 0)
(63.7238 0.000919245 0)
(63.7232 0.00091995 0)
(63.7225 0.000920775 0)
(63.7218 0.000926427 0)
(63.7212 0.000937388 0)
(63.7206 0.000952444 0)
(63.7199 0.00097393 0)
(63.7192 0.000997389 0)
(63.7185 0.00100363 0)
(63.7178 0.000983659 0)
(63.7172 0.000954873 0)
(63.7165 0.000942741 0)
(63.7159 0.000953181 0)
(63.7152 0.000972536 0)
(63.7146 0.000987937 0)
(63.7139 0.000998107 0)
(63.7132 0.00100618 0)
(63.7125 0.00100859 0)
(63.7118 0.00100349 0)
(63.7111 0.000998028 0)
(63.7104 0.00100445 0)
(63.7097 0.00102591 0)
(63.709 0.00103941 0)
(63.7083 0.00102443 0)
(63.7077 0.00099354 0)
(63.7071 0.000969128 0)
(63.7065 0.000963187 0)
(63.7058 0.000973171 0)
(63.705 0.000992633 0)
(63.7043 0.00101139 0)
(63.7036 0.00107384 0)
(63.7024 0.00107764 0)
(50.5372 7.61046e-05 0)
(85.4387 0.000381523 0)
(73.2691 0.000614114 0)
(60.6272 0.000631838 0)
(59.8845 0.000593311 0)
(63.3441 0.000561628 0)
(64.854 0.000528476 0)
(64.4036 0.000505452 0)
(63.7879 0.00049879 0)
(63.6863 0.000497979 0)
(63.8299 0.000530354 0)
(63.9153 0.000562638 0)
(63.9057 0.000548795 0)
(63.8772 0.000511015 0)
(63.8695 0.0004799 0)
(63.8753 0.000491212 0)
(63.8801 0.000492986 0)
(63.8804 0.000476841 0)
(63.8794 0.000499109 0)
(63.8793 0.000532446 0)
(63.8798 0.000525747 0)
(63.8802 0.000495079 0)
(63.8807 0.000494286 0)
(63.8812 0.000509063 0)
(63.8816 0.000475595 0)
(63.882 0.000411169 0)
(63.8823 0.000384579 0)
(63.8827 0.000415157 0)
(63.8832 0.000457836 0)
(63.8834 0.00048004 0)
(63.8837 0.000481041 0)
(63.884 0.000477451 0)
(63.8845 0.000494221 0)
(63.8849 0.000499966 0)
(63.8853 0.000473684 0)
(63.8858 0.000447283 0)
(63.8861 0.000455509 0)
(63.8863 0.000503951 0)
(63.8866 0.000540302 0)
(63.887 0.000511632 0)
(63.8874 0.000438592 0)
(63.8878 0.000390701 0)
(63.8882 0.000413585 0)
(63.8887 0.000459851 0)
(63.8891 0.000462198 0)
(63.8895 0.000445964 0)
(63.8901 0.000447185 0)
(63.8905 0.000444221 0)
(63.8908 0.000432567 0)
(63.8913 0.000436731 0)
(63.8916 0.000454281 0)
(63.8919 0.000473226 0)
(63.8922 0.000488821 0)
(63.8926 0.000475614 0)
(63.893 0.000434541 0)
(63.8933 0.000410428 0)
(63.8936 0.000437195 0)
(63.8939 0.000497726 0)
(63.8942 0.000519938 0)
(63.8945 0.000478995 0)
(63.8949 0.000415666 0)
(63.8952 0.0003498 0)
(63.8956 0.000304686 0)
(63.896 0.000295302 0)
(63.8964 0.000305152 0)
(63.8969 0.000335682 0)
(63.8974 0.000387939 0)
(63.8977 0.000431742 0)
(63.8979 0.000449187 0)
(63.8983 0.000452709 0)
(63.8987 0.000440251 0)
(63.899 0.000417363 0)
(63.8994 0.000408508 0)
(63.8997 0.000411829 0)
(63.9001 0.000426513 0)
(63.9005 0.000454657 0)
(63.9008 0.000484149 0)
(63.9013 0.00049275 0)
(63.9017 0.000458645 0)
(63.9022 0.000413532 0)
(63.9026 0.000391533 0)
(63.9029 0.000394247 0)
(63.9032 0.000431103 0)
(63.9037 0.00046297 0)
(63.904 0.000448634 0)
(63.9043 0.000421502 0)
(63.9047 0.000387705 0)
(63.905 0.000333363 0)
(63.9054 0.000305084 0)
(63.9058 0.000327038 0)
(63.9062 0.000372801 0)
(63.9066 0.000424361 0)
(63.907 0.000459333 0)
(63.9074 0.000463068 0)
(63.9079 0.000444092 0)
(63.9082 0.000419977 0)
(63.9086 0.000426883 0)
(63.909 0.000464221 0)
(63.9092 0.000482706 0)
(63.9096 0.000476155 0)
(63.9101 0.000463625 0)
(63.9105 0.000428321 0)
(63.9108 0.000373653 0)
(63.9112 0.000338224 0)
(63.9115 0.000332153 0)
(63.9119 0.000352206 0)
(63.9123 0.00040119 0)
(63.9127 0.000457765 0)
(63.913 0.000499443 0)
(63.9134 0.000515662 0)
(63.9138 0.000494309 0)
(63.9141 0.000450746 0)
(63.9144 0.000419206 0)
(63.9148 0.000402329 0)
(63.9152 0.000388691 0)
(63.9156 0.000383108 0)
(63.9161 0.000385311 0)
(63.9165 0.000388398 0)
(63.9168 0.000392459 0)
(63.9171 0.000403554 0)
(63.9174 0.000422053 0)
(63.9177 0.000427857 0)
(63.9179 0.000416827 0)
(63.9183 0.000416563 0)
(63.9186 0.000431421 0)
(63.919 0.000443338 0)
(63.9194 0.000447599 0)
(63.9198 0.000436407 0)
(63.9203 0.000398666 0)
(63.9206 0.000353888 0)
(63.921 0.000330023 0)
(63.9213 0.000328362 0)
(63.9216 0.000350105 0)
(63.922 0.000379779 0)
(63.9224 0.000379042 0)
(63.9228 0.00036046 0)
(63.9233 0.000354305 0)
(63.9236 0.000354938 0)
(63.924 0.000368314 0)
(63.9244 0.000398789 0)
(63.9247 0.000420783 0)
(63.925 0.000416426 0)
(63.9254 0.000399925 0)
(63.9258 0.000397184 0)
(63.9262 0.000409751 0)
(63.9264 0.000430295 0)
(63.9269 0.000458518 0)
(63.9273 0.000477322 0)
(63.9276 0.000473039 0)
(63.928 0.000460201 0)
(63.9284 0.000447749 0)
(63.9287 0.000420898 0)
(63.929 0.000384014 0)
(63.9293 0.000368863 0)
(63.9296 0.00038014 0)
(63.9299 0.000396527 0)
(63.9303 0.000413711 0)
(63.9306 0.000434626 0)
(63.9311 0.000438762 0)
(63.9314 0.000403925 0)
(63.9318 0.000356193 0)
(63.9322 0.000335561 0)
(63.9325 0.000341081 0)
(63.9327 0.000365155 0)
(63.9331 0.00040636 0)
(63.9335 0.000445152 0)
(63.9338 0.000453516 0)
(63.9342 0.000424575 0)
(63.9347 0.000392088 0)
(63.9351 0.000378174 0)
(63.9355 0.000358406 0)
(63.9357 0.000325408 0)
(63.936 0.000302294 0)
(63.9364 0.000301493 0)
(63.9367 0.00031996 0)
(63.9371 0.000347947 0)
(63.9376 0.00037363 0)
(63.938 0.000379614 0)
(63.9384 0.000359441 0)
(63.9388 0.000333293 0)
(63.9391 0.000315202 0)
(63.9394 0.000304769 0)
(63.9397 0.000306826 0)
(63.9401 0.00031662 0)
(63.9405 0.000323871 0)
(63.9409 0.000326997 0)
(63.9414 0.000324144 0)
(63.9417 0.000326763 0)
(63.9421 0.000341912 0)
(63.9423 0.000349864 0)
(63.9426 0.000346504 0)
(63.943 0.00033979 0)
(63.9433 0.000330976 0)
(63.9438 0.000330531 0)
(63.9442 0.00033424 0)
(63.9446 0.000339434 0)
(63.945 0.000357462 0)
(63.9453 0.000372747 0)
(63.9456 0.000379676 0)
(63.946 0.00039125 0)
(63.9463 0.000394291 0)
(63.9467 0.000382582 0)
(63.9471 0.000369877 0)
(63.9476 0.000364834 0)
(63.948 0.000368044 0)
(63.9483 0.000380077 0)
(63.9487 0.00041011 0)
(63.949 0.000440977 0)
(63.9493 0.000441192 0)
(63.9496 0.000421896 0)
(63.9499 0.000406435 0)
(63.9503 0.000403471 0)
(63.9507 0.000408793 0)
(63.951 0.000406982 0)
(63.9513 0.000402565 0)
(63.9517 0.00040035 0)
(63.9519 0.000394687 0)
(63.9523 0.00039395 0)
(63.9526 0.000397655 0)
(63.9529 0.00039659 0)
(63.9533 0.000383283 0)
(63.9536 0.000354191 0)
(63.954 0.000327958 0)
(63.9544 0.000319146 0)
(63.9548 0.000325952 0)
(63.9552 0.000350671 0)
(63.9557 0.000385067 0)
(63.956 0.000405527 0)
(63.9563 0.000400375 0)
(63.9566 0.000381561 0)
(63.957 0.000361785 0)
(63.9573 0.000338247 0)
(63.9577 0.000313428 0)
(63.9581 0.000305305 0)
(63.9585 0.000322447 0)
(63.959 0.000355582 0)
(63.9594 0.000393338 0)
(63.9598 0.000417903 0)
(63.9601 0.000414269 0)
(63.9605 0.00039248 0)
(63.9609 0.000362631 0)
(63.9612 0.000324133 0)
(63.9615 0.000294415 0)
(63.9619 0.000299234 0)
(63.9622 0.000341379 0)
(63.9626 0.000392146 0)
(63.963 0.000422829 0)
(63.9634 0.000431324 0)
(63.9637 0.00046888 0)
(63.9644 0.000438902 0)
(50.5373 1.98072e-05 0)
(85.4384 3.69942e-05 0)
(73.2677 3.63158e-05 0)
(60.6251 5.32476e-05 0)
(59.8824 7.53184e-05 0)
(63.3421 0.000109742 0)
(64.8519 0.000136458 0)
(64.401 9.6713e-05 0)
(63.7847 6.68689e-05 0)
(63.6829 7.01638e-05 0)
(63.826 9.60449e-05 0)
(63.9108 0.000140918 0)
(63.901 0.000140139 0)
(63.8723 0.000110469 0)
(63.8641 0.000106048 0)
(63.8696 0.000152046 0)
(63.8742 0.00021421 0)
(63.8742 0.000227438 0)
(63.8729 0.000197433 0)
(63.8725 0.000170772 0)
(63.8729 0.000176532 0)
(63.8731 0.000184116 0)
(63.8731 0.000151996 0)
(63.8731 0.000112736 0)
(63.8731 0.000102686 0)
(63.8731 0.000154508 0)
(63.873 0.000220316 0)
(63.8729 0.00021134 0)
(63.8729 0.000167751 0)
(63.8729 0.000149208 0)
(63.8732 0.000159317 0)
(63.8732 0.000171056 0)
(63.8731 0.000160159 0)
(63.8733 0.000144884 0)
(63.8733 0.000141245 0)
(63.8732 0.000155008 0)
(63.8732 0.0001683 0)
(63.8733 0.000156932 0)
(63.8736 0.000143484 0)
(63.8737 0.000137485 0)
(63.8736 0.00013296 0)
(63.8736 0.000137377 0)
(63.8736 0.00014712 0)
(63.8737 0.000175956 0)
(63.8737 0.000195563 0)
(63.8735 0.000159657 0)
(63.8736 0.00013765 0)
(63.8736 0.000167484 0)
(63.8737 0.000190692 0)
(63.8739 0.00022693 0)
(63.8739 0.000288465 0)
(63.8738 0.000279041 0)
(63.8739 0.000185554 0)
(63.8739 0.000119276 0)
(63.874 0.000134783 0)
(63.874 0.000183624 0)
(63.8741 0.000221808 0)
(63.8742 0.000264608 0)
(63.8742 0.000297135 0)
(63.8743 0.000276412 0)
(63.8743 0.000232639 0)
(63.8743 0.00020445 0)
(63.8742 0.000193787 0)
(63.8742 0.000196017 0)
(63.8742 0.000181234 0)
(63.8742 0.000158041 0)
(63.8742 0.000171583 0)
(63.8742 0.000205437 0)
(63.8742 0.000217602 0)
(63.8743 0.000215468 0)
(63.8743 0.000209544 0)
(63.8743 0.000199299 0)
(63.8745 0.000199816 0)
(63.8745 0.000200601 0)
(63.8745 0.000184553 0)
(63.8745 0.000153381 0)
(63.8746 0.000122238 0)
(63.8748 0.000131658 0)
(63.8748 0.000168633 0)
(63.8747 0.000189839 0)
(63.8747 0.000200691 0)
(63.8747 0.000192858 0)
(63.8747 0.000173866 0)
(63.8748 0.000188795 0)
(63.8748 0.000222056 0)
(63.8748 0.000241717 0)
(63.8749 0.000256107 0)
(63.8749 0.000257319 0)
(63.8748 0.000243624 0)
(63.8748 0.000241196 0)
(63.8747 0.000251985 0)
(63.8747 0.000258322 0)
(63.8748 0.000258709 0)
(63.8749 0.000260407 0)
(63.875 0.000252408 0)
(63.875 0.000226714 0)
(63.875 0.000219932 0)
(63.8751 0.000245159 0)
(63.8752 0.0002483 0)
(63.8753 0.000214006 0)
(63.8753 0.000190222 0)
(63.8753 0.000191771 0)
(63.8753 0.000195746 0)
(63.8753 0.000196402 0)
(63.8753 0.00018836 0)
(63.8753 0.000165157 0)
(63.8754 0.000150879 0)
(63.8754 0.000167531 0)
(63.8755 0.000207506 0)
(63.8755 0.000252802 0)
(63.8756 0.000271691 0)
(63.8757 0.000242564 0)
(63.8757 0.000192863 0)
(63.8758 0.000155689 0)
(63.8758 0.000130728 0)
(63.8758 0.000121203 0)
(63.8759 0.000141214 0)
(63.8759 0.00018276 0)
(63.876 0.000222739 0)
(63.876 0.00025238 0)
(63.8761 0.000278011 0)
(63.8761 0.000291733 0)
(63.8762 0.000278363 0)
(63.8762 0.000251947 0)
(63.8762 0.000230798 0)
(63.8763 0.000211843 0)
(63.8763 0.000198863 0)
(63.8764 0.00020514 0)
(63.8765 0.000229256 0)
(63.8765 0.000256228 0)
(63.8765 0.000273834 0)
(63.8765 0.000276738 0)
(63.8765 0.000279221 0)
(63.8766 0.000294189 0)
(63.8766 0.000293583 0)
(63.8765 0.000272346 0)
(63.8765 0.000259485 0)
(63.8765 0.000244274 0)
(63.8765 0.000224097 0)
(63.8766 0.000229507 0)
(63.8767 0.000260298 0)
(63.8767 0.000280751 0)
(63.8767 0.000268678 0)
(63.8768 0.000249058 0)
(63.8768 0.000236634 0)
(63.8768 0.000213288 0)
(63.8768 0.000196751 0)
(63.8769 0.00020786 0)
(63.877 0.000219081 0)
(63.877 0.000217312 0)
(63.877 0.000228867 0)
(63.8771 0.000253321 0)
(63.8771 0.000255862 0)
(63.8771 0.000232969 0)
(63.8772 0.000205998 0)
(63.8772 0.000177805 0)
(63.8773 0.000155989 0)
(63.8773 0.000166224 0)
(63.8774 0.000207125 0)
(63.8775 0.000233159 0)
(63.8775 0.000224122 0)
(63.8775 0.00021649 0)
(63.8775 0.000224279 0)
(63.8775 0.000230054 0)
(63.8775 0.000239529 0)
(63.8775 0.000258432 0)
(63.8776 0.000267197 0)
(63.8777 0.000245045 0)
(63.8776 0.000211807 0)
(63.8777 0.0002145 0)
(63.8777 0.000251032 0)
(63.8777 0.000283045 0)
(63.8777 0.000295164 0)
(63.8777 0.000287087 0)
(63.8776 0.000260922 0)
(63.8775 0.000228608 0)
(63.8775 0.000214559 0)
(63.8776 0.000227355 0)
(63.8776 0.000244051 0)
(63.8777 0.000255548 0)
(63.8777 0.000268605 0)
(63.8778 0.000277959 0)
(63.8778 0.000287777 0)
(63.8778 0.000298522 0)
(63.8777 0.000293572 0)
(63.8777 0.000278109 0)
(63.8777 0.000267313 0)
(63.8777 0.000270114 0)
(63.8777 0.000296633 0)
(63.8778 0.000328025 0)
(63.8779 0.000336509 0)
(63.8779 0.000318976 0)
(63.8779 0.000283475 0)
(63.8778 0.000255855 0)
(63.8778 0.000246916 0)
(63.8778 0.000244978 0)
(63.8779 0.000262177 0)
(63.878 0.000283562 0)
(63.878 0.000271609 0)
(63.8781 0.000244545 0)
(63.8782 0.000230913 0)
(63.8782 0.000232747 0)
(63.8782 0.000248204 0)
(63.8782 0.000269389 0)
(63.8782 0.000281397 0)
(63.8783 0.000266335 0)
(63.8784 0.000239308 0)
(63.8785 0.000237977 0)
(63.8785 0.000257691 0)
(63.8786 0.000271744 0)
(63.8787 0.00027256 0)
(63.8787 0.000278836 0)
(63.8787 0.000301468 0)
(63.8787 0.000305613 0)
(63.8788 0.000280352 0)
(63.8788 0.000253622 0)
(63.8788 0.00022798 0)
(63.8789 0.000209542 0)
(63.879 0.000215948 0)
(63.879 0.000241821 0)
(63.8791 0.000263251 0)
(63.8791 0.000258527 0)
(63.8791 0.000237433 0)
(63.8791 0.000210945 0)
(63.879 0.000173958 0)
(63.879 0.000152132 0)
(63.8791 0.000174167 0)
(63.8791 0.000221128 0)
(63.8792 0.000255372 0)
(63.8792 0.000266348 0)
(63.8793 0.000266474 0)
(63.8793 0.000260064 0)
(63.8793 0.000248026 0)
(63.8792 0.000235084 0)
(63.8792 0.000218453 0)
(63.8791 0.00020606 0)
(63.8791 0.000219953 0)
(63.8792 0.000256212 0)
(63.8792 0.000280396 0)
(63.8793 0.000282565 0)
(63.8794 0.000286623 0)
(63.8794 0.000291532 0)
(63.8794 0.000275744 0)
(63.8794 0.000251224 0)
(63.8794 0.000251899 0)
(63.8795 0.000281219 0)
(63.8796 0.000306734 0)
(63.8796 0.00030741 0)
(63.8796 0.000280136 0)
(63.8797 0.000266689 0)
(50.5372 2.25483e-05 0)
(85.4385 0.000130529 0)
(73.2681 0.000217694 0)
(60.6255 0.000248046 0)
(59.8825 0.000236573 0)
(63.3419 0.000244454 0)
(64.8517 0.000294688 0)
(64.401 0.000340199 0)
(63.7845 0.000372794 0)
(63.6827 0.000400817 0)
(63.8258 0.000407067 0)
(63.9108 0.000405708 0)
(63.901 0.000379994 0)
(63.8721 0.000343427 0)
(63.864 0.000340017 0)
(63.8694 0.000376547 0)
(63.8739 0.000419582 0)
(63.8743 0.000409956 0)
(63.8731 0.000364521 0)
(63.8725 0.000355789 0)
(63.8726 0.000389159 0)
(63.8728 0.000395342 0)
(63.8729 0.000351665 0)
(63.8729 0.000336777 0)
(63.8729 0.000386649 0)
(63.873 0.000445509 0)
(63.8732 0.000454913 0)
(63.8734 0.000399024 0)
(63.8734 0.000343864 0)
(63.8734 0.000337426 0)
(63.8732 0.000372897 0)
(63.8732 0.000395984 0)
(63.8733 0.000361827 0)
(63.8733 0.000341905 0)
(63.8733 0.000381942 0)
(63.8735 0.000437362 0)
(63.8735 0.000423852 0)
(63.8734 0.000320683 0)
(63.8734 0.000241976 0)
(63.8734 0.000257871 0)
(63.8735 0.000330002 0)
(63.8736 0.000396271 0)
(63.8736 0.000423024 0)
(63.8735 0.000455192 0)
(63.8736 0.000472491 0)
(63.8737 0.000389984 0)
(63.8737 0.000277467 0)
(63.8738 0.000246062 0)
(63.8737 0.000279696 0)
(63.8735 0.000348626 0)
(63.8736 0.000437692 0)
(63.8738 0.000464924 0)
(63.8738 0.000398198 0)
(63.8738 0.000328704 0)
(63.8738 0.000316548 0)
(63.8738 0.000337884 0)
(63.8737 0.000362109 0)
(63.8737 0.000387689 0)
(63.8738 0.000408192 0)
(63.8739 0.000393148 0)
(63.8741 0.000350777 0)
(63.8742 0.000314786 0)
(63.8742 0.000301156 0)
(63.8743 0.000323079 0)
(63.8744 0.000363414 0)
(63.8744 0.000390274 0)
(63.8744 0.000407581 0)
(63.8744 0.00041525 0)
(63.8744 0.000386384 0)
(63.8744 0.000331385 0)
(63.8745 0.0002851 0)
(63.8745 0.000253015 0)
(63.8745 0.00026281 0)
(63.8746 0.000323705 0)
(63.8747 0.000372805 0)
(63.8746 0.000367442 0)
(63.8746 0.000322273 0)
(63.8745 0.000291706 0)
(63.8746 0.000314942 0)
(63.8746 0.000372764 0)
(63.8747 0.000440102 0)
(63.8747 0.000472708 0)
(63.8747 0.000440784 0)
(63.8746 0.000396386 0)
(63.8746 0.000363576 0)
(63.8746 0.000321571 0)
(63.8747 0.000304344 0)
(63.8748 0.000333253 0)
(63.8749 0.000375759 0)
(63.875 0.000408935 0)
(63.875 0.000410359 0)
(63.875 0.000363921 0)
(63.875 0.000293961 0)
(63.8751 0.000249233 0)
(63.8753 0.000258406 0)
(63.8753 0.000289605 0)
(63.8753 0.000304922 0)
(63.8753 0.000325646 0)
(63.8753 0.000366104 0)
(63.8753 0.000396734 0)
(63.8753 0.000402553 0)
(63.8754 0.000389893 0)
(63.8754 0.000360338 0)
(63.8755 0.000329498 0)
(63.8756 0.000320021 0)
(63.8755 0.000326492 0)
(63.8755 0.000336555 0)
(63.8754 0.00034925 0)
(63.8754 0.000359378 0)
(63.8754 0.000363685 0)
(63.8755 0.000364669 0)
(63.8755 0.000357391 0)
(63.8755 0.000336658 0)
(63.8756 0.000313362 0)
(63.8756 0.000298435 0)
(63.8756 0.000293037 0)
(63.8756 0.000299689 0)
(63.8756 0.000309806 0)
(63.8756 0.000312484 0)
(63.8756 0.000312506 0)
(63.8757 0.000315686 0)
(63.8757 0.000328588 0)
(63.8757 0.000346832 0)
(63.8757 0.000349285 0)
(63.8758 0.000335636 0)
(63.8758 0.000312447 0)
(63.8758 0.000273184 0)
(63.8758 0.000244316 0)
(63.8759 0.000262014 0)
(63.8759 0.000305705 0)
(63.876 0.000339984 0)
(63.8761 0.000350526 0)
(63.8761 0.000335355 0)
(63.8761 0.000324421 0)
(63.8762 0.00032948 0)
(63.8762 0.000332958 0)
(63.8763 0.000347098 0)
(63.8764 0.000362309 0)
(63.8764 0.000349707 0)
(63.8763 0.000327374 0)
(63.8763 0.000315504 0)
(63.8764 0.000307742 0)
(63.8764 0.000303882 0)
(63.8765 0.000319876 0)
(63.8765 0.000350272 0)
(63.8765 0.000359827 0)
(63.8765 0.000351815 0)
(63.8765 0.000360023 0)
(63.8765 0.00038143 0)
(63.8765 0.000388554 0)
(63.8765 0.000377112 0)
(63.8766 0.00036507 0)
(63.8767 0.0003523 0)
(63.8767 0.00033448 0)
(63.8767 0.000326812 0)
(63.8767 0.000325028 0)
(63.8767 0.000306908 0)
(63.8766 0.000281737 0)
(63.8767 0.000282109 0)
(63.8768 0.000309326 0)
(63.8768 0.000336164 0)
(63.8769 0.000356411 0)
(63.8769 0.000370116 0)
(63.8769 0.00036201 0)
(63.8769 0.000329893 0)
(63.8768 0.000296237 0)
(63.8769 0.000291889 0)
(63.8769 0.000311451 0)
(63.8769 0.000321587 0)
(63.8769 0.000326463 0)
(63.877 0.000344521 0)
(63.877 0.00036907 0)
(63.8771 0.000392505 0)
(63.8772 0.000407411 0)
(63.8772 0.000401162 0)
(63.8773 0.000370209 0)
(63.8773 0.000328122 0)
(63.8773 0.000294141 0)
(63.8774 0.000271212 0)
(63.8775 0.000257744 0)
(63.8776 0.000258852 0)
(63.8776 0.00027042 0)
(63.8777 0.000288563 0)
(63.8777 0.000312476 0)
(63.8778 0.000329232 0)
(63.8779 0.000332754 0)
(63.878 0.00032436 0)
(63.878 0.000299778 0)
(63.878 0.000276293 0)
(63.878 0.00027343 0)
(63.878 0.000284806 0)
(63.8781 0.000302137 0)
(63.8782 0.000312479 0)
(63.8783 0.000307894 0)
(63.8783 0.00029222 0)
(63.8783 0.000264704 0)
(63.8783 0.000253399 0)
(63.8783 0.000278588 0)
(63.8783 0.000301391 0)
(63.8783 0.000298303 0)
(63.8784 0.00028084 0)
(63.8784 0.000257145 0)
(63.8785 0.000242549 0)
(63.8785 0.000255085 0)
(63.8786 0.000291249 0)
(63.8786 0.000315073 0)
(63.8785 0.000303945 0)
(63.8785 0.000286073 0)
(63.8785 0.000284355 0)
(63.8785 0.000293128 0)
(63.8786 0.000304714 0)
(63.8786 0.000319898 0)
(63.8786 0.000346132 0)
(63.8786 0.000364984 0)
(63.8787 0.00035785 0)
(63.8787 0.000343211 0)
(63.8787 0.000329634 0)
(63.8787 0.000314239 0)
(63.8786 0.000303042 0)
(63.8786 0.000296244 0)
(63.8787 0.000295532 0)
(63.8788 0.000300325 0)
(63.8789 0.000309701 0)
(63.879 0.000323658 0)
(63.879 0.00033029 0)
(63.8789 0.000328413 0)
(63.8789 0.000329333 0)
(63.8789 0.000334724 0)
(63.8789 0.000338435 0)
(63.879 0.000333698 0)
(63.8791 0.000323187 0)
(63.8792 0.000318222 0)
(63.8793 0.000325909 0)
(63.8794 0.000343027 0)
(63.8794 0.000355727 0)
(63.8794 0.000350185 0)
(63.8794 0.000328293 0)
(63.8794 0.000304489 0)
(63.8795 0.000285199 0)
(63.8795 0.000272011 0)
(63.8796 0.000279328 0)
(63.8797 0.000309285 0)
(63.8798 0.000329733 0)
(63.8798 0.000313922 0)
(63.8798 0.000276177 0)
(63.8798 0.000251266 0)
(63.8798 0.000253515 0)
(63.8799 0.000261364 0)
(63.88 0.000262239 0)
(63.8801 0.000293168 0)
(50.5372 -7.75774e-06 0)
(85.4385 3.51381e-05 0)
(73.2682 0.00011361 0)
(60.6255 0.00017194 0)
(59.8825 0.000190726 0)
(63.3418 0.000168893 0)
(64.8515 0.000170937 0)
(64.4007 0.000193364 0)
(63.7844 0.000183341 0)
(63.6827 0.000173841 0)
(63.8258 0.000163862 0)
(63.9107 0.00015168 0)
(63.901 0.000166655 0)
(63.8722 0.00019617 0)
(63.8639 0.000193676 0)
(63.8694 0.000128001 0)
(63.8741 7.10751e-05 0)
(63.8742 7.51811e-05 0)
(63.8728 0.000116237 0)
(63.8724 0.000156428 0)
(63.8728 0.000161255 0)
(63.8731 0.000144978 0)
(63.8731 0.000124166 0)
(63.8729 0.000106231 0)
(63.873 0.000123734 0)
(63.873 0.000122029 0)
(63.873 9.0354e-05 0)
(63.873 0.000127647 0)
(63.8729 0.000220191 0)
(63.8728 0.000262403 0)
(63.8731 0.000220501 0)
(63.8732 0.000132519 0)
(63.8732 6.94458e-05 0)
(63.8733 7.96413e-05 0)
(63.8732 0.000115488 0)
(63.8732 0.000128666 0)
(63.8734 0.000135112 0)
(63.8735 0.000143423 0)
(63.8735 0.000137854 0)
(63.8736 0.000106344 0)
(63.8735 7.4655e-05 0)
(63.8735 8.61497e-05 0)
(63.8735 0.000131244 0)
(63.8735 0.000171515 0)
(63.8737 0.000194472 0)
(63.8738 0.000194794 0)
(63.8737 0.000188544 0)
(63.8737 0.000217493 0)
(63.8737 0.000253067 0)
(63.8737 0.000228212 0)
(63.8737 0.000179446 0)
(63.8739 0.000170547 0)
(63.8739 0.000185181 0)
(63.8738 0.000193857 0)
(63.8738 0.000194513 0)
(63.8739 0.000200912 0)
(63.8739 0.000200184 0)
(63.8739 0.000159221 0)
(63.8739 0.000100078 0)
(63.874 6.65037e-05 0)
(63.874 6.57613e-05 0)
(63.874 7.49116e-05 0)
(63.874 6.64569e-05 0)
(63.874 5.26671e-05 0)
(63.8741 6.98677e-05 0)
(63.8741 0.000124732 0)
(63.8741 0.000195056 0)
(63.8742 0.000245251 0)
(63.8743 0.000234464 0)
(63.8743 0.000170499 0)
(63.8744 0.000119029 0)
(63.8744 0.000103773 0)
(63.8744 0.000107621 0)
(63.8743 0.00013024 0)
(63.8744 0.000164145 0)
(63.8745 0.000195537 0)
(63.8746 0.000203009 0)
(63.8747 0.000176932 0)
(63.8747 0.000146875 0)
(63.8746 0.000132033 0)
(63.8747 0.000150832 0)
(63.8748 0.000207085 0)
(63.8748 0.00024455 0)
(63.8749 0.000236249 0)
(63.875 0.000196888 0)
(63.875 0.00012688 0)
(63.875 7.22401e-05 0)
(63.875 8.92832e-05 0)
(63.8749 0.000144844 0)
(63.8749 0.00018094 0)
(63.875 0.000195335 0)
(63.8751 0.000202938 0)
(63.8751 0.000191427 0)
(63.875 0.000167078 0)
(63.8749 0.000173027 0)
(63.8749 0.000199808 0)
(63.8749 0.000199877 0)
(63.8749 0.000188024 0)
(63.875 0.000192149 0)
(63.8751 0.00018976 0)
(63.8751 0.000170453 0)
(63.8751 0.000157382 0)
(63.8752 0.000150889 0)
(63.8752 0.000139064 0)
(63.8752 0.00013775 0)
(63.8753 0.000156822 0)
(63.8754 0.000186482 0)
(63.8755 0.000224606 0)
(63.8756 0.000253641 0)
(63.8755 0.000242078 0)
(63.8755 0.000204105 0)
(63.8756 0.000170566 0)
(63.8757 0.00013468 0)
(63.8758 0.000106726 0)
(63.8759 0.000113633 0)
(63.8759 0.000133226 0)
(63.8759 0.000144611 0)
(63.876 0.000163866 0)
(63.876 0.000190773 0)
(63.876 0.000208196 0)
(63.876 0.00021066 0)
(63.876 0.000212953 0)
(63.876 0.000225387 0)
(63.876 0.000225948 0)
(63.8761 0.000209052 0)
(63.8762 0.00019541 0)
(63.8762 0.000175529 0)
(63.8762 0.000143462 0)
(63.8762 0.000127015 0)
(63.8761 0.000134308 0)
(63.8761 0.000161924 0)
(63.8762 0.000204139 0)
(63.8762 0.000219309 0)
(63.8762 0.000199832 0)
(63.8762 0.000184579 0)
(63.8762 0.000176285 0)
(63.8762 0.000181131 0)
(63.8763 0.000208975 0)
(63.8763 0.000227169 0)
(63.8763 0.000221436 0)
(63.8764 0.000207874 0)
(63.8764 0.000199155 0)
(63.8764 0.000200018 0)
(63.8764 0.000208266 0)
(63.8764 0.000225438 0)
(63.8765 0.000240468 0)
(63.8765 0.000233149 0)
(63.8766 0.000210805 0)
(63.8766 0.000198876 0)
(63.8767 0.000196102 0)
(63.8767 0.00018251 0)
(63.8767 0.000169558 0)
(63.8768 0.000165461 0)
(63.8768 0.000148734 0)
(63.8768 0.000134022 0)
(63.8769 0.000148944 0)
(63.877 0.000166777 0)
(63.877 0.000151656 0)
(63.877 0.000123083 0)
(63.877 0.000119736 0)
(63.877 0.000140256 0)
(63.877 0.000170863 0)
(63.8771 0.000215128 0)
(63.8771 0.000262638 0)
(63.8772 0.000279717 0)
(63.8772 0.000251527 0)
(63.8772 0.000214036 0)
(63.8773 0.000199394 0)
(63.8773 0.000189144 0)
(63.8773 0.000173787 0)
(63.8773 0.000167867 0)
(63.8773 0.000168456 0)
(63.8774 0.000169042 0)
(63.8774 0.000170685 0)
(63.8775 0.0001733 0)
(63.8776 0.000169861 0)
(63.8777 0.000147709 0)
(63.8778 0.000117979 0)
(63.8778 0.000107049 0)
(63.8778 0.000117089 0)
(63.8778 0.000137753 0)
(63.8778 0.000155794 0)
(63.8778 0.000155915 0)
(63.8779 0.000146904 0)
(63.8779 0.000149361 0)
(63.8779 0.000172325 0)
(63.878 0.000212106 0)
(63.8779 0.000243223 0)
(63.8779 0.000246132 0)
(63.878 0.000229144 0)
(63.878 0.000208298 0)
(63.878 0.000202227 0)
(63.878 0.0002116 0)
(63.878 0.000224743 0)
(63.878 0.000242048 0)
(63.878 0.00024334 0)
(63.878 0.000219171 0)
(63.878 0.000203642 0)
(63.8781 0.000206081 0)
(63.8781 0.000214142 0)
(63.8782 0.000225503 0)
(63.8781 0.000226021 0)
(63.8781 0.000205233 0)
(63.8781 0.000179879 0)
(63.8781 0.000182675 0)
(63.8782 0.000216543 0)
(63.8783 0.000249002 0)
(63.8783 0.000267468 0)
(63.8783 0.00027744 0)
(63.8783 0.000281619 0)
(63.8783 0.000276674 0)
(63.8783 0.000249584 0)
(63.8783 0.000218882 0)
(63.8784 0.000211156 0)
(63.8784 0.000215676 0)
(63.8785 0.000227539 0)
(63.8785 0.000242984 0)
(63.8786 0.000241914 0)
(63.8787 0.000215857 0)
(63.8787 0.000171363 0)
(63.8787 0.00013183 0)
(63.8788 0.000112629 0)
(63.8788 0.000112637 0)
(63.8788 0.000141469 0)
(63.8789 0.000185876 0)