/*--------------------------------*- C++ -*----------------------------------*\
| =========                 |                                                 |
| \\      /  F ield         | OpenFOAM: The Open Source CFD Toolbox           |
|  \\    /   O peration     | Version:  2406                                  |
|   \\  /    A nd           | Website:  www.openfoam.com                      |
|    \\/     M anipulation  |                                                 |
\*---------------------------------------------------------------------------*/
FoamFile
{
    version     2.0;
    format      ascii;
    arch        "LSB;label=32;scalar=64";
    class       surfaceScalarField;
    location    "0.4";
    object      phi;
}
// * * * * * * * * * * * * * * * * * * * * * * * * * * * * * * * * * * * * * //

dimensions      [0 3 -1 0 0 0 0];

oriented        oriented;

internalField   nonuniform List<scalar> 
12225
(
5.08732e-05
5.16937e-09
5.0856e-05
1.72146e-08
5.08351e-05
2.09552e-08
5.08159e-05
1.9134e-08
5.07972e-05
1.87848e-08
5.07764e-05
2.07117e-08
5.07539e-05
2.25787e-08
5.07304e-05
2.34889e-08
5.07065e-05
2.38572e-08
5.06823e-05
2.42276e-08
5.06576e-05
2.46842e-08
5.06325e-05
2.50972e-08
5.06071e-05
2.54047e-08
5.05815e-05
2.56358e-08
5.05556e-05
2.58307e-08
5.05296e-05
2.60032e-08
5.05035e-05
2.61513e-08
5.04772e-05
2.62748e-08
5.04508e-05
2.63776e-08
5.04244e-05
2.64646e-08
5.03978e-05
2.65389e-08
5.03712e-05
2.66021e-08
5.03446e-05
2.66558e-08
5.03179e-05
2.67012e-08
5.02911e-05
2.67397e-08
5.02644e-05
2.67723e-08
5.02376e-05
2.67998e-08
5.02107e-05
2.6823e-08
5.01839e-05
2.68423e-08
5.0157e-05
2.68584e-08
5.01302e-05
2.68717e-08
5.01033e-05
2.68824e-08
5.00764e-05
2.68911e-08
5.00495e-05
2.68978e-08
5.00226e-05
2.6903e-08
4.99957e-05
2.69067e-08
4.99688e-05
2.69091e-08
4.99419e-05
2.69105e-08
4.9915e-05
2.69109e-08
4.9888e-05
2.69104e-08
4.98611e-05
2.69092e-08
4.98342e-05
2.69073e-08
4.98073e-05
2.69048e-08
4.97804e-05
2.69019e-08
4.97535e-05
2.68985e-08
4.97266e-05
2.68946e-08
4.96997e-05
2.68905e-08
4.96729e-05
2.6886e-08
4.9646e-05
2.68812e-08
4.96191e-05
2.68762e-08
4.95922e-05
2.6871e-08
4.95654e-05
2.68655e-08
4.95385e-05
2.686e-08
4.95116e-05
2.68542e-08
4.94848e-05
2.68483e-08
4.9458e-05
2.68423e-08
4.94311e-05
2.68362e-08
4.94043e-05
2.683e-08
4.93775e-05
2.68237e-08
4.93506e-05
2.68173e-08
4.93238e-05
2.68108e-08
4.9297e-05
2.68043e-08
4.92702e-05
2.67978e-08
4.92434e-05
2.67912e-08
4.92167e-05
2.67845e-08
4.91899e-05
2.67778e-08
4.91631e-05
2.67711e-08
4.91363e-05
2.67643e-08
4.91096e-05
2.67575e-08
4.90828e-05
2.67507e-08
4.90561e-05
2.67439e-08
4.90294e-05
2.6737e-08
4.90026e-05
2.67301e-08
4.89759e-05
2.67232e-08
4.89492e-05
2.67163e-08
4.89225e-05
2.67093e-08
4.88958e-05
2.67024e-08
4.88691e-05
2.66954e-08
4.88424e-05
2.66885e-08
4.88157e-05
2.66815e-08
4.8789e-05
2.66745e-08
4.87624e-05
2.66675e-08
4.87357e-05
2.66605e-08
4.87091e-05
2.66535e-08
4.86824e-05
2.66464e-08
4.86558e-05
2.66394e-08
4.86291e-05
2.66324e-08
4.86025e-05
2.66253e-08
4.85759e-05
2.66183e-08
4.85493e-05
2.66112e-08
4.85227e-05
2.66041e-08
4.84961e-05
2.65971e-08
4.84695e-05
2.659e-08
4.84429e-05
2.65829e-08
4.84163e-05
2.65759e-08
4.83898e-05
2.65688e-08
4.83632e-05
2.65617e-08
4.83366e-05
2.65546e-08
4.83101e-05
2.65475e-08
4.82836e-05
2.65404e-08
4.8257e-05
2.65333e-08
4.82305e-05
2.65262e-08
4.8204e-05
2.65191e-08
4.81775e-05
2.6512e-08
4.8151e-05
2.65048e-08
4.81245e-05
2.64977e-08
4.8098e-05
2.64906e-08
4.80715e-05
2.64835e-08
4.8045e-05
2.64763e-08
4.80185e-05
2.64692e-08
4.79921e-05
2.64621e-08
4.79656e-05
2.64549e-08
4.79392e-05
2.64478e-08
4.79127e-05
2.64406e-08
4.78863e-05
2.64335e-08
4.78599e-05
2.64263e-08
4.78335e-05
2.64192e-08
4.7807e-05
2.6412e-08
4.77806e-05
2.64048e-08
4.77542e-05
2.63977e-08
4.77279e-05
2.63905e-08
4.77015e-05
2.63833e-08
4.76751e-05
2.63761e-08
4.76487e-05
2.6369e-08
4.76224e-05
2.63618e-08
4.7596e-05
2.63546e-08
4.75697e-05
2.63474e-08
4.75433e-05
2.63402e-08
4.7517e-05
2.6333e-08
4.74907e-05
2.63258e-08
4.74643e-05
2.63186e-08
4.7438e-05
2.63114e-08
4.74117e-05
2.63042e-08
4.73854e-05
2.6297e-08
4.73591e-05
2.62897e-08
4.73329e-05
2.62825e-08
4.73066e-05
2.62753e-08
4.72803e-05
2.62681e-08
4.72541e-05
2.62608e-08
4.72278e-05
2.62536e-08
4.72016e-05
2.62464e-08
4.71753e-05
2.62391e-08
4.71491e-05
2.62319e-08
4.71229e-05
2.62246e-08
4.70966e-05
2.62174e-08
4.70704e-05
2.62101e-08
4.70442e-05
2.62029e-08
4.7018e-05
2.61956e-08
4.69918e-05
2.61883e-08
4.69657e-05
2.61811e-08
4.69395e-05
2.61738e-08
4.69133e-05
2.61665e-08
4.68872e-05
2.61592e-08
4.6861e-05
2.61519e-08
4.68349e-05
2.61446e-08
4.68087e-05
2.61374e-08
4.67826e-05
2.61301e-08
4.67565e-05
2.61228e-08
4.67304e-05
2.61154e-08
4.67043e-05
2.61081e-08
4.66782e-05
2.61008e-08
4.66521e-05
2.60935e-08
4.6626e-05
2.60862e-08
4.65999e-05
2.60789e-08
4.65738e-05
2.60715e-08
4.65478e-05
2.60642e-08
4.65217e-05
2.60569e-08
4.64957e-05
2.60495e-08
4.64696e-05
2.60422e-08
4.64436e-05
2.60348e-08
4.64175e-05
2.60275e-08
4.63915e-05
2.60201e-08
4.63655e-05
2.60128e-08
4.63395e-05
2.60054e-08
4.63135e-05
2.5998e-08
4.62875e-05
2.59907e-08
4.62615e-05
2.59833e-08
4.62356e-05
2.59759e-08
4.62096e-05
2.59685e-08
4.61836e-05
2.59611e-08
4.61577e-05
2.59537e-08
4.61317e-05
2.59463e-08
4.61058e-05
2.59389e-08
4.60799e-05
2.59315e-08
4.60539e-05
2.59241e-08
4.6028e-05
2.59167e-08
4.60021e-05
2.59093e-08
4.59762e-05
2.59019e-08
4.59503e-05
2.58945e-08
4.59244e-05
2.58871e-08
4.58985e-05
2.58796e-08
4.58727e-05
2.58722e-08
4.58468e-05
2.58648e-08
4.5821e-05
2.58573e-08
4.57951e-05
2.58499e-08
4.57693e-05
2.58424e-08
4.57434e-05
2.5835e-08
4.57176e-05
2.58275e-08
4.56918e-05
2.58201e-08
4.5666e-05
2.58127e-08
4.56402e-05
2.58052e-08
4.56144e-05
2.57978e-08
4.55886e-05
2.57904e-08
4.55628e-05
2.5783e-08
4.5537e-05
2.57756e-08
4.55112e-05
2.57682e-08
4.54855e-05
2.57607e-08
4.54597e-05
2.57533e-08
4.5434e-05
2.57459e-08
4.54082e-05
2.57385e-08
4.53825e-05
2.57311e-08
4.53568e-05
2.57238e-08
4.53311e-05
2.57165e-08
4.53054e-05
2.57093e-08
4.52797e-05
2.57021e-08
4.5254e-05
2.56949e-08
4.52283e-05
2.56878e-08
4.52026e-05
2.56806e-08
4.51769e-05
2.56736e-08
4.51513e-05
2.56665e-08
4.51256e-05
2.56596e-08
4.50999e-05
2.56528e-08
4.50743e-05
2.56461e-08
4.50487e-05
2.56396e-08
4.5023e-05
2.56333e-08
4.49974e-05
2.56273e-08
4.49718e-05
2.56214e-08
4.49462e-05
2.56158e-08
4.49206e-05
2.56106e-08
4.48949e-05
2.56057e-08
4.48693e-05
2.56014e-08
4.48438e-05
2.55976e-08
4.48182e-05
2.55947e-08
4.47926e-05
2.55929e-08
4.4767e-05
2.55923e-08
4.47414e-05
2.55933e-08
4.47158e-05
2.55964e-08
4.46902e-05
2.56021e-08
4.46646e-05
2.56113e-08
4.46389e-05
2.5625e-08
4.46133e-05
2.56448e-08
4.45876e-05
2.56727e-08
4.45619e-05
2.57125e-08
4.45361e-05
2.57674e-08
4.45103e-05
2.5849e-08
4.44843e-05
2.59518e-08
4.44582e-05
2.61428e-08
4.44319e-05
2.62726e-08
4.44051e-05
2.6845e-08
2.61952e-08
5.09086e-05
-4.27337e-10
5.0924e-05
1.86465e-09
5.09398e-05
5.11562e-09
5.09512e-05
7.70411e-09
5.09615e-05
8.50351e-09
5.09736e-05
8.6309e-09
5.0987e-05
9.14957e-09
5.10006e-05
9.87484e-09
5.1014e-05
1.04475e-08
5.10275e-05
1.08092e-08
5.10411e-05
1.10821e-08
5.10548e-05
1.13408e-08
5.10686e-05
1.15813e-08
5.10825e-05
1.17863e-08
5.10964e-05
1.19573e-08
5.11103e-05
1.2105e-08
5.11242e-05
1.22367e-08
5.11381e-05
1.23548e-08
5.1152e-05
1.24603e-08
5.11659e-05
1.25549e-08
5.11798e-05
1.26406e-08
5.11937e-05
1.27188e-08
5.12076e-05
1.27907e-08
5.12214e-05
1.28572e-08
5.12352e-05
1.29189e-08
5.1249e-05
1.29765e-08
5.12628e-05
1.30306e-08
5.12765e-05
1.30817e-08
5.12903e-05
1.31302e-08
5.13039e-05
1.31763e-08
5.13176e-05
1.32205e-08
5.13312e-05
1.32629e-08
5.13448e-05
1.33037e-08
5.13583e-05
1.33432e-08
5.13719e-05
1.33816e-08
5.13854e-05
1.34188e-08
5.13988e-05
1.34552e-08
5.14122e-05
1.34907e-08
5.14256e-05
1.35255e-08
5.1439e-05
1.35597e-08
5.14523e-05
1.35933e-08
5.14656e-05
1.36264e-08
5.14788e-05
1.3659e-08
5.1492e-05
1.36912e-08
5.15052e-05
1.37231e-08
5.15183e-05
1.37546e-08
5.15314e-05
1.37859e-08
5.15445e-05
1.38168e-08
5.15575e-05
1.38476e-08
5.15705e-05
1.38781e-08
5.15835e-05
1.39084e-08
5.15964e-05
1.39385e-08
5.16093e-05
1.39685e-08
5.16222e-05
1.39983e-08
5.1635e-05
1.4028e-08
5.16478e-05
1.40575e-08
5.16605e-05
1.40869e-08
5.16732e-05
1.41162e-08
5.16859e-05
1.41454e-08
5.16986e-05
1.41745e-08
5.17112e-05
1.42035e-08
5.17237e-05
1.42325e-08
5.17363e-05
1.42613e-08
5.17488e-05
1.429e-08
5.17613e-05
1.43187e-08
5.17737e-05
1.43473e-08
5.17861e-05
1.43758e-08
5.17984e-05
1.44043e-08
5.18108e-05
1.44327e-08
5.18231e-05
1.4461e-08
5.18353e-05
1.44892e-08
5.18475e-05
1.45174e-08
5.18597e-05
1.45455e-08
5.18719e-05
1.45736e-08
5.1884e-05
1.46016e-08
5.18961e-05
1.46296e-08
5.19081e-05
1.46574e-08
5.19201e-05
1.46853e-08
5.19321e-05
1.4713e-08
5.1944e-05
1.47408e-08
5.19559e-05
1.47684e-08
5.19678e-05
1.4796e-08
5.19796e-05
1.48236e-08
5.19914e-05
1.48511e-08
5.20032e-05
1.48785e-08
5.20149e-05
1.49059e-08
5.20266e-05
1.49332e-08
5.20383e-05
1.49605e-08
5.20499e-05
1.49877e-08
5.20615e-05
1.50149e-08
5.20731e-05
1.5042e-08
5.20846e-05
1.50691e-08
5.20961e-05
1.50961e-08
5.21076e-05
1.51231e-08
5.2119e-05
1.515e-08
5.21304e-05
1.51768e-08
5.21418e-05
1.52036e-08
5.21531e-05
1.52304e-08
5.21644e-05
1.52571e-08
5.21756e-05
1.52837e-08
5.21868e-05
1.53103e-08
5.2198e-05
1.53369e-08
5.22092e-05
1.53633e-08
5.22203e-05
1.53898e-08
5.22314e-05
1.54162e-08
5.22425e-05
1.54425e-08
5.22535e-05
1.54688e-08
5.22645e-05
1.5495e-08
5.22754e-05
1.55212e-08
5.22863e-05
1.55473e-08
5.22972e-05
1.55734e-08
5.23081e-05
1.55995e-08
5.23189e-05
1.56254e-08
5.23297e-05
1.56514e-08
5.23405e-05
1.56772e-08
5.23512e-05
1.57031e-08
5.23619e-05
1.57288e-08
5.23725e-05
1.57546e-08
5.23832e-05
1.57802e-08
5.23937e-05
1.58059e-08
5.24043e-05
1.58314e-08
5.24148e-05
1.5857e-08
5.24253e-05
1.58825e-08
5.24358e-05
1.59079e-08
5.24462e-05
1.59332e-08
5.24566e-05
1.59586e-08
5.2467e-05
1.59838e-08
5.24773e-05
1.60091e-08
5.24876e-05
1.60342e-08
5.24979e-05
1.60594e-08
5.25081e-05
1.60844e-08
5.25183e-05
1.61095e-08
5.25285e-05
1.61345e-08
5.25386e-05
1.61594e-08
5.25487e-05
1.61843e-08
5.25588e-05
1.62091e-08
5.25688e-05
1.62339e-08
5.25788e-05
1.62586e-08
5.25888e-05
1.62833e-08
5.25988e-05
1.63079e-08
5.26087e-05
1.63325e-08
5.26186e-05
1.6357e-08
5.26284e-05
1.63815e-08
5.26382e-05
1.64059e-08
5.2648e-05
1.64303e-08
5.26578e-05
1.64547e-08
5.26675e-05
1.6479e-08
5.26772e-05
1.65032e-08
5.26869e-05
1.65274e-08
5.26965e-05
1.65516e-08
5.27061e-05
1.65757e-08
5.27156e-05
1.65997e-08
5.27252e-05
1.66237e-08
5.27347e-05
1.66477e-08
5.27442e-05
1.66716e-08
5.27536e-05
1.66954e-08
5.2763e-05
1.67192e-08
5.27724e-05
1.6743e-08
5.27817e-05
1.67667e-08
5.27911e-05
1.67904e-08
5.28003e-05
1.6814e-08
5.28096e-05
1.68376e-08
5.28188e-05
1.68611e-08
5.2828e-05
1.68846e-08
5.28372e-05
1.6908e-08
5.28463e-05
1.69314e-08
5.28554e-05
1.69547e-08
5.28645e-05
1.6978e-08
5.28735e-05
1.70013e-08
5.28825e-05
1.70245e-08
5.28915e-05
1.70476e-08
5.29005e-05
1.70707e-08
5.29094e-05
1.70938e-08
5.29183e-05
1.71168e-08
5.29271e-05
1.71397e-08
5.2936e-05
1.71627e-08
5.29448e-05
1.71855e-08
5.29535e-05
1.72084e-08
5.29623e-05
1.72311e-08
5.2971e-05
1.72539e-08
5.29797e-05
1.72766e-08
5.29883e-05
1.72992e-08
5.29969e-05
1.73218e-08
5.30055e-05
1.73444e-08
5.30141e-05
1.73669e-08
5.30226e-05
1.73893e-08
5.30311e-05
1.74117e-08
5.30396e-05
1.74341e-08
5.3048e-05
1.74564e-08
5.30564e-05
1.74787e-08
5.30648e-05
1.75009e-08
5.30731e-05
1.75232e-08
5.30814e-05
1.75454e-08
5.30897e-05
1.75675e-08
5.3098e-05
1.75896e-08
5.31062e-05
1.76116e-08
5.31144e-05
1.76336e-08
5.31226e-05
1.76555e-08
5.31307e-05
1.76773e-08
5.31389e-05
1.76991e-08
5.31469e-05
1.77209e-08
5.3155e-05
1.77427e-08
5.3163e-05
1.77645e-08
5.3171e-05
1.77863e-08
5.3179e-05
1.7808e-08
5.31869e-05
1.78297e-08
5.31948e-05
1.78514e-08
5.32027e-05
1.7873e-08
5.32106e-05
1.78945e-08
5.32184e-05
1.7916e-08
5.32262e-05
1.79374e-08
5.32339e-05
1.79589e-08
5.32417e-05
1.79803e-08
5.32494e-05
1.80018e-08
5.32571e-05
1.80233e-08
5.32647e-05
1.80448e-08
5.32723e-05
1.80663e-08
5.32799e-05
1.80879e-08
5.32875e-05
1.81095e-08
5.3295e-05
1.8131e-08
5.33025e-05
1.81526e-08
5.331e-05
1.81741e-08
5.33175e-05
1.81958e-08
5.33249e-05
1.82175e-08
5.33323e-05
1.82394e-08
5.33397e-05
1.82615e-08
5.3347e-05
1.82838e-08
5.33543e-05
1.83064e-08
5.33616e-05
1.83293e-08
5.33688e-05
1.83525e-08
5.33761e-05
1.8376e-08
5.33833e-05
1.84e-08
5.33904e-05
1.84246e-08
5.33976e-05
1.84499e-08
5.34047e-05
1.84761e-08
5.34118e-05
1.85035e-08
5.34188e-05
1.85324e-08
5.34259e-05
1.85631e-08
5.34329e-05
1.8596e-08
5.34399e-05
1.86316e-08
5.34469e-05
1.86704e-08
5.34538e-05
1.8713e-08
5.34608e-05
1.87603e-08
5.34677e-05
1.88125e-08
5.34747e-05
1.8871e-08
5.34817e-05
1.89327e-08
5.34889e-05
1.90021e-08
5.34961e-05
1.90622e-08
5.35038e-05
1.91263e-08
1.93548e-08
5.09026e-05
6.46163e-10
5.09018e-05
2.69703e-09
5.09026e-05
4.2711e-09
5.0905e-05
5.28068e-09
5.09075e-05
6.03659e-09
5.09094e-05
6.70129e-09
5.09112e-05
7.35745e-09
5.09131e-05
7.96898e-09
5.09151e-05
8.47656e-09
5.0917e-05
8.87876e-09
5.09189e-05
9.21536e-09
5.09207e-05
9.51649e-09
5.09225e-05
9.78673e-09
5.09243e-05
1.00226e-08
5.0926e-05
1.02264e-08
5.09277e-05
1.04046e-08
5.09294e-05
1.05627e-08
5.0931e-05
1.07037e-08
5.09327e-05
1.08293e-08
5.09343e-05
1.09414e-08
5.09359e-05
1.10419e-08
5.09375e-05
1.11325e-08
5.09391e-05
1.12145e-08
5.09406e-05
1.12891e-08
5.09422e-05
1.1357e-08
5.09437e-05
1.14192e-08
5.09453e-05
1.14764e-08
5.09468e-05
1.15292e-08
5.09484e-05
1.15782e-08
5.095e-05
1.16237e-08
5.09515e-05
1.16663e-08
5.09531e-05
1.17063e-08
5.09546e-05
1.1744e-08
5.09562e-05
1.17796e-08
5.09578e-05
1.18134e-08
5.09593e-05
1.18456e-08
5.09609e-05
1.18764e-08
5.09625e-05
1.19059e-08
5.09641e-05
1.19343e-08
5.09657e-05
1.19618e-08
5.09673e-05
1.19883e-08
5.09689e-05
1.20141e-08
5.09705e-05
1.20391e-08
5.09721e-05
1.20635e-08
5.09738e-05
1.20874e-08
5.09754e-05
1.21108e-08
5.09771e-05
1.21337e-08
5.09787e-05
1.21562e-08
5.09804e-05
1.21783e-08
5.09821e-05
1.22001e-08
5.09838e-05
1.22216e-08
5.09855e-05
1.22428e-08
5.09872e-05
1.22638e-08
5.09889e-05
1.22845e-08
5.09906e-05
1.23051e-08
5.09923e-05
1.23254e-08
5.09941e-05
1.23456e-08
5.09958e-05
1.23656e-08
5.09976e-05
1.23855e-08
5.09994e-05
1.24053e-08
5.10011e-05
1.24249e-08
5.10029e-05
1.24444e-08
5.10047e-05
1.24638e-08
5.10065e-05
1.2483e-08
5.10084e-05
1.25022e-08
5.10102e-05
1.25213e-08
5.1012e-05
1.25403e-08
5.10139e-05
1.25592e-08
5.10157e-05
1.25781e-08
5.10176e-05
1.25968e-08
5.10194e-05
1.26155e-08
5.10213e-05
1.26341e-08
5.10232e-05
1.26527e-08
5.10251e-05
1.26712e-08
5.1027e-05
1.26896e-08
5.1029e-05
1.2708e-08
5.10309e-05
1.27263e-08
5.10328e-05
1.27445e-08
5.10348e-05
1.27627e-08
5.10367e-05
1.27809e-08
5.10387e-05
1.27989e-08
5.10407e-05
1.2817e-08
5.10427e-05
1.2835e-08
5.10447e-05
1.28529e-08
5.10467e-05
1.28708e-08
5.10487e-05
1.28886e-08
5.10507e-05
1.29064e-08
5.10528e-05
1.29241e-08
5.10548e-05
1.29418e-08
5.10569e-05
1.29594e-08
5.10589e-05
1.2977e-08
5.1061e-05
1.29945e-08
5.10631e-05
1.3012e-08
5.10652e-05
1.30295e-08
5.10673e-05
1.30469e-08
5.10694e-05
1.30642e-08
5.10715e-05
1.30815e-08
5.10737e-05
1.30988e-08
5.10758e-05
1.3116e-08
5.10779e-05
1.31332e-08
5.10801e-05
1.31504e-08
5.10823e-05
1.31675e-08
5.10845e-05
1.31845e-08
5.10866e-05
1.32015e-08
5.10888e-05
1.32185e-08
5.1091e-05
1.32354e-08
5.10933e-05
1.32523e-08
5.10955e-05
1.32692e-08
5.10977e-05
1.3286e-08
5.11e-05
1.33027e-08
5.11022e-05
1.33195e-08
5.11045e-05
1.33362e-08
5.11068e-05
1.33528e-08
5.1109e-05
1.33694e-08
5.11113e-05
1.3386e-08
5.11136e-05
1.34025e-08
5.11159e-05
1.3419e-08
5.11183e-05
1.34355e-08
5.11206e-05
1.34519e-08
5.11229e-05
1.34682e-08
5.11253e-05
1.34846e-08
5.11276e-05
1.35009e-08
5.113e-05
1.35171e-08
5.11324e-05
1.35334e-08
5.11348e-05
1.35496e-08
5.11371e-05
1.35657e-08
5.11395e-05
1.35818e-08
5.1142e-05
1.35979e-08
5.11444e-05
1.36139e-08
5.11468e-05
1.36299e-08
5.11492e-05
1.36459e-08
5.11517e-05
1.36618e-08
5.11542e-05
1.36777e-08
5.11566e-05
1.36936e-08
5.11591e-05
1.37094e-08
5.11616e-05
1.37252e-08
5.11641e-05
1.37409e-08
5.11666e-05
1.37566e-08
5.11691e-05
1.37723e-08
5.11716e-05
1.3788e-08
5.11741e-05
1.38036e-08
5.11767e-05
1.38191e-08
5.11792e-05
1.38347e-08
5.11818e-05
1.38502e-08
5.11843e-05
1.38657e-08
5.11869e-05
1.38811e-08
5.11895e-05
1.38965e-08
5.11921e-05
1.39119e-08
5.11947e-05
1.39272e-08
5.11973e-05
1.39425e-08
5.11999e-05
1.39578e-08
5.12025e-05
1.3973e-08
5.12052e-05
1.39882e-08
5.12078e-05
1.40034e-08
5.12105e-05
1.40185e-08
5.12131e-05
1.40336e-08
5.12158e-05
1.40487e-08
5.12185e-05
1.40638e-08
5.12212e-05
1.40788e-08
5.12239e-05
1.40937e-08
5.12266e-05
1.41087e-08
5.12293e-05
1.41236e-08
5.1232e-05
1.41385e-08
5.12347e-05
1.41533e-08
5.12375e-05
1.41682e-08
5.12402e-05
1.41829e-08
5.1243e-05
1.41977e-08
5.12458e-05
1.42124e-08
5.12485e-05
1.42271e-08
5.12513e-05
1.42418e-08
5.12541e-05
1.42564e-08
5.12569e-05
1.4271e-08
5.12597e-05
1.42856e-08
5.12625e-05
1.43002e-08
5.12654e-05
1.43147e-08
5.12682e-05
1.43291e-08
5.1271e-05
1.43436e-08
5.12739e-05
1.4358e-08
5.12767e-05
1.43724e-08
5.12796e-05
1.43868e-08
5.12825e-05
1.44011e-08
5.12854e-05
1.44154e-08
5.12883e-05
1.44297e-08
5.12912e-05
1.4444e-08
5.12941e-05
1.44582e-08
5.1297e-05
1.44724e-08
5.12999e-05
1.44866e-08
5.13028e-05
1.45007e-08
5.13058e-05
1.45148e-08
5.13087e-05
1.45289e-08
5.13117e-05
1.45429e-08
5.13147e-05
1.45569e-08
5.13176e-05
1.45709e-08
5.13206e-05
1.4585e-08
5.13236e-05
1.4599e-08
5.13266e-05
1.46129e-08
5.13296e-05
1.46269e-08
5.13326e-05
1.46408e-08
5.13356e-05
1.46546e-08
5.13387e-05
1.46685e-08
5.13417e-05
1.46823e-08
5.13448e-05
1.4696e-08
5.13478e-05
1.47098e-08
5.13509e-05
1.47235e-08
5.13539e-05
1.47373e-08
5.1357e-05
1.47511e-08
5.13601e-05
1.47649e-08
5.13632e-05
1.47787e-08
5.13663e-05
1.47924e-08
5.13694e-05
1.48062e-08
5.13725e-05
1.48199e-08
5.13757e-05
1.48336e-08
5.13788e-05
1.48473e-08
5.13819e-05
1.48609e-08
5.13851e-05
1.48747e-08
5.13882e-05
1.48884e-08
5.13914e-05
1.49022e-08
5.13946e-05
1.49161e-08
5.13978e-05
1.49301e-08
5.14009e-05
1.49441e-08
5.14041e-05
1.49582e-08
5.14073e-05
1.49724e-08
5.14105e-05
1.49866e-08
5.14138e-05
1.50009e-08
5.1417e-05
1.50153e-08
5.14202e-05
1.50299e-08
5.14235e-05
1.50447e-08
5.14267e-05
1.50598e-08
5.143e-05
1.50752e-08
5.14332e-05
1.5091e-08
5.14365e-05
1.51073e-08
5.14398e-05
1.5124e-08
5.1443e-05
1.51412e-08
5.14463e-05
1.51591e-08
5.14496e-05
1.51777e-08
5.14529e-05
1.51971e-08
5.14563e-05
1.52177e-08
5.14596e-05
1.52395e-08
5.14629e-05
1.52627e-08
5.14663e-05
1.52877e-08
5.14696e-05
1.53146e-08
5.1473e-05
1.53435e-08
5.14764e-05
1.53744e-08
5.14798e-05
1.54071e-08
5.14832e-05
1.54405e-08
5.14867e-05
1.54747e-08
5.14902e-05
1.55031e-08
5.14937e-05
1.55359e-08
5.14973e-05
1.55253e-08
1.55753e-08
5.09073e-05
2.1065e-10
5.09087e-05
1.37177e-09
5.09103e-05
2.69102e-09
5.09117e-05
3.79811e-09
5.09131e-05
4.63528e-09
5.09145e-05
5.31097e-09
5.0916e-05
5.91436e-09
5.09175e-05
6.47268e-09
5.0919e-05
6.974e-09
5.09204e-05
7.40783e-09
5.09219e-05
7.78141e-09
5.09233e-05
8.10875e-09
5.09247e-05
8.39875e-09
5.0926e-05
8.6549e-09
5.09274e-05
8.87999e-09
5.09287e-05
9.07802e-09
5.093e-05
9.25315e-09
5.09313e-05
9.40864e-09
5.09326e-05
9.54695e-09
5.09339e-05
9.67018e-09
5.09351e-05
9.78027e-09
5.09364e-05
9.87898e-09
5.09376e-05
9.96779e-09
5.09389e-05
1.00479e-08
5.09401e-05
1.01205e-08
5.09413e-05
1.01865e-08
5.09426e-05
1.02466e-08
5.09438e-05
1.03017e-08
5.0945e-05
1.03524e-08
5.09462e-05
1.03991e-08
5.09475e-05
1.04425e-08
5.09487e-05
1.04828e-08
5.09499e-05
1.05204e-08
5.09511e-05
1.05557e-08
5.09524e-05
1.0589e-08
5.09536e-05
1.06205e-08
5.09548e-05
1.06503e-08
5.0956e-05
1.06787e-08
5.09573e-05
1.07059e-08
5.09585e-05
1.0732e-08
5.09597e-05
1.07571e-08
5.0961e-05
1.07813e-08
5.09622e-05
1.08048e-08
5.09634e-05
1.08276e-08
5.09647e-05
1.08497e-08
5.09659e-05
1.08713e-08
5.09672e-05
1.08925e-08
5.09684e-05
1.09132e-08
5.09696e-05
1.09335e-08
5.09709e-05
1.09535e-08
5.09721e-05
1.09731e-08
5.09734e-05
1.09925e-08
5.09746e-05
1.10116e-08
5.09759e-05
1.10305e-08
5.09772e-05
1.10492e-08
5.09784e-05
1.10677e-08
5.09797e-05
1.10861e-08
5.09809e-05
1.11043e-08
5.09822e-05
1.11223e-08
5.09835e-05
1.11402e-08
5.09847e-05
1.1158e-08
5.0986e-05
1.11757e-08
5.09873e-05
1.11933e-08
5.09885e-05
1.12108e-08
5.09898e-05
1.12282e-08
5.09911e-05
1.12455e-08
5.09924e-05
1.12627e-08
5.09936e-05
1.12799e-08
5.09949e-05
1.1297e-08
5.09962e-05
1.1314e-08
5.09975e-05
1.13309e-08
5.09988e-05
1.13478e-08
5.10001e-05
1.13647e-08
5.10014e-05
1.13814e-08
5.10026e-05
1.13982e-08
5.10039e-05
1.14148e-08
5.10052e-05
1.14314e-08
5.10065e-05
1.1448e-08
5.10078e-05
1.14645e-08
5.10091e-05
1.1481e-08
5.10104e-05
1.14974e-08
5.10117e-05
1.15138e-08
5.1013e-05
1.15301e-08
5.10143e-05
1.15464e-08
5.10157e-05
1.15626e-08
5.1017e-05
1.15788e-08
5.10183e-05
1.15949e-08
5.10196e-05
1.1611e-08
5.10209e-05
1.16271e-08
5.10222e-05
1.16431e-08
5.10235e-05
1.16591e-08
5.10249e-05
1.1675e-08
5.10262e-05
1.16909e-08
5.10275e-05
1.17067e-08
5.10288e-05
1.17225e-08
5.10302e-05
1.17383e-08
5.10315e-05
1.1754e-08
5.10328e-05
1.17697e-08
5.10341e-05
1.17853e-08
5.10355e-05
1.18009e-08
5.10368e-05
1.18165e-08
5.10381e-05
1.1832e-08
5.10395e-05
1.18475e-08
5.10408e-05
1.18629e-08
5.10422e-05
1.18783e-08
5.10435e-05
1.18936e-08
5.10448e-05
1.1909e-08
5.10462e-05
1.19242e-08
5.10475e-05
1.19395e-08
5.10489e-05
1.19547e-08
5.10502e-05
1.19698e-08
5.10516e-05
1.1985e-08
5.10529e-05
1.2e-08
5.10543e-05
1.20151e-08
5.10556e-05
1.20301e-08
5.1057e-05
1.20451e-08
5.10584e-05
1.206e-08
5.10597e-05
1.20749e-08
5.10611e-05
1.20897e-08
5.10624e-05
1.21045e-08
5.10638e-05
1.21193e-08
5.10652e-05
1.2134e-08
5.10665e-05
1.21487e-08
5.10679e-05
1.21634e-08
5.10693e-05
1.2178e-08
5.10707e-05
1.21926e-08
5.1072e-05
1.22072e-08
5.10734e-05
1.22217e-08
5.10748e-05
1.22362e-08
5.10762e-05
1.22506e-08
5.10776e-05
1.2265e-08
5.10789e-05
1.22794e-08
5.10803e-05
1.22937e-08
5.10817e-05
1.2308e-08
5.10831e-05
1.23223e-08
5.10845e-05
1.23365e-08
5.10859e-05
1.23507e-08
5.10873e-05
1.23648e-08
5.10887e-05
1.23789e-08
5.109e-05
1.2393e-08
5.10914e-05
1.24071e-08
5.10928e-05
1.24211e-08
5.10942e-05
1.2435e-08
5.10956e-05
1.2449e-08
5.1097e-05
1.24629e-08
5.10985e-05
1.24768e-08
5.10999e-05
1.24906e-08
5.11013e-05
1.25044e-08
5.11027e-05
1.25181e-08
5.11041e-05
1.25319e-08
5.11055e-05
1.25456e-08
5.11069e-05
1.25592e-08
5.11083e-05
1.25729e-08
5.11097e-05
1.25864e-08
5.11112e-05
1.26e-08
5.11126e-05
1.26135e-08
5.1114e-05
1.2627e-08
5.11154e-05
1.26405e-08
5.11169e-05
1.26539e-08
5.11183e-05
1.26673e-08
5.11197e-05
1.26806e-08
5.11211e-05
1.2694e-08
5.11226e-05
1.27072e-08
5.1124e-05
1.27205e-08
5.11254e-05
1.27337e-08
5.11269e-05
1.27469e-08
5.11283e-05
1.27601e-08
5.11297e-05
1.27732e-08
5.11312e-05
1.27863e-08
5.11326e-05
1.27993e-08
5.11341e-05
1.28124e-08
5.11355e-05
1.28254e-08
5.1137e-05
1.28383e-08
5.11384e-05
1.28513e-08
5.11399e-05
1.28642e-08
5.11413e-05
1.28771e-08
5.11428e-05
1.28899e-08
5.11442e-05
1.29027e-08
5.11457e-05
1.29155e-08
5.11471e-05
1.29282e-08
5.11486e-05
1.29409e-08
5.11501e-05
1.29536e-08
5.11515e-05
1.29662e-08
5.1153e-05
1.29789e-08
5.11545e-05
1.29915e-08
5.11559e-05
1.30041e-08
5.11574e-05
1.30166e-08
5.11589e-05
1.30291e-08
5.11603e-05
1.30416e-08
5.11618e-05
1.30541e-08
5.11633e-05
1.30665e-08
5.11648e-05
1.30789e-08
5.11663e-05
1.30912e-08
5.11677e-05
1.31035e-08
5.11692e-05
1.31158e-08
5.11707e-05
1.31281e-08
5.11722e-05
1.31404e-08
5.11737e-05
1.31527e-08
5.11752e-05
1.31649e-08
5.11767e-05
1.31772e-08
5.11782e-05
1.31894e-08
5.11796e-05
1.32015e-08
5.11811e-05
1.32137e-08
5.11826e-05
1.32257e-08
5.11841e-05
1.32378e-08
5.11856e-05
1.32498e-08
5.11871e-05
1.32619e-08
5.11886e-05
1.3274e-08
5.11902e-05
1.32861e-08
5.11917e-05
1.32982e-08
5.11932e-05
1.33103e-08
5.11947e-05
1.33225e-08
5.11962e-05
1.33346e-08
5.11977e-05
1.33467e-08
5.11992e-05
1.33588e-08
5.12007e-05
1.33709e-08
5.12023e-05
1.3383e-08
5.12038e-05
1.33952e-08
5.12053e-05
1.34074e-08
5.12068e-05
1.34197e-08
5.12084e-05
1.34322e-08
5.12099e-05
1.34447e-08
5.12114e-05
1.34574e-08
5.12129e-05
1.34702e-08
5.12145e-05
1.34832e-08
5.1216e-05
1.34963e-08
5.12175e-05
1.35095e-08
5.12191e-05
1.35229e-08
5.12206e-05
1.35366e-08
5.12222e-05
1.35506e-08
5.12237e-05
1.3565e-08
5.12252e-05
1.35799e-08
5.12268e-05
1.35953e-08
5.12283e-05
1.36113e-08
5.12299e-05
1.36279e-08
5.12314e-05
1.36452e-08
5.1233e-05
1.36632e-08
5.12346e-05
1.3682e-08
5.12361e-05
1.37016e-08
5.12377e-05
1.37221e-08
5.12393e-05
1.37435e-08
5.12408e-05
1.37658e-08
5.12424e-05
1.37888e-08
5.1244e-05
1.38122e-08
5.12456e-05
1.38353e-08
5.12472e-05
1.38577e-08
5.12489e-05
1.38772e-08
5.12505e-05
1.38957e-08
5.12521e-05
1.39055e-08
1.3916e-08
5.09088e-05
2.29198e-10
5.09089e-05
1.28837e-09
5.09093e-05
2.34974e-09
5.09099e-05
3.1432e-09
5.09108e-05
3.76319e-09
5.09118e-05
4.32087e-09
5.09128e-05
4.85243e-09
5.0914e-05
5.34859e-09
5.09151e-05
5.79425e-09
5.09164e-05
6.18586e-09
5.09176e-05
6.53034e-09
5.09189e-05
6.83679e-09
5.09202e-05
7.11106e-09
5.09215e-05
7.35598e-09
5.09228e-05
7.57385e-09
5.09241e-05
7.76762e-09
5.09254e-05
7.94041e-09
5.09267e-05
8.09492e-09
5.0928e-05
8.23329e-09
5.09293e-05
8.35735e-09
5.09306e-05
8.46878e-09
5.0932e-05
8.56909e-09
5.09333e-05
8.65963e-09
5.09346e-05
8.74154e-09
5.09359e-05
8.81585e-09
5.09372e-05
8.88344e-09
5.09385e-05
8.9451e-09
5.09398e-05
9.00154e-09
5.09411e-05
9.05335e-09
5.09424e-05
9.10108e-09
5.09437e-05
9.1452e-09
5.0945e-05
9.18612e-09
5.09463e-05
9.22422e-09
5.09476e-05
9.25982e-09
5.09489e-05
9.2932e-09
5.09502e-05
9.32462e-09
5.09515e-05
9.35429e-09
5.09527e-05
9.38242e-09
5.0954e-05
9.40917e-09
5.09553e-05
9.43471e-09
5.09566e-05
9.45916e-09
5.09579e-05
9.48264e-09
5.09592e-05
9.50527e-09
5.09605e-05
9.52713e-09
5.09618e-05
9.54831e-09
5.09631e-05
9.56887e-09
5.09644e-05
9.58889e-09
5.09658e-05
9.60843e-09
5.09671e-05
9.62752e-09
5.09684e-05
9.64623e-09
5.09697e-05
9.66458e-09
5.0971e-05
9.68261e-09
5.09723e-05
9.70035e-09
5.09736e-05
9.71783e-09
5.09749e-05
9.73508e-09
5.09762e-05
9.75212e-09
5.09776e-05
9.76896e-09
5.09789e-05
9.78563e-09
5.09802e-05
9.80213e-09
5.09815e-05
9.81848e-09
5.09828e-05
9.8347e-09
5.09842e-05
9.85079e-09
5.09855e-05
9.86676e-09
5.09868e-05
9.88263e-09
5.09881e-05
9.89839e-09
5.09895e-05
9.91406e-09
5.09908e-05
9.92965e-09
5.09921e-05
9.94514e-09
5.09935e-05
9.96056e-09
5.09948e-05
9.97591e-09
5.09962e-05
9.99118e-09
5.09975e-05
1.00064e-08
5.09988e-05
1.00215e-08
5.10002e-05
1.00366e-08
5.10015e-05
1.00516e-08
5.10029e-05
1.00666e-08
5.10042e-05
1.00815e-08
5.10056e-05
1.00964e-08
5.10069e-05
1.01112e-08
5.10083e-05
1.01259e-08
5.10097e-05
1.01406e-08
5.1011e-05
1.01553e-08
5.10124e-05
1.01699e-08
5.10137e-05
1.01844e-08
5.10151e-05
1.0199e-08
5.10165e-05
1.02134e-08
5.10178e-05
1.02279e-08
5.10192e-05
1.02422e-08
5.10206e-05
1.02566e-08
5.10219e-05
1.02709e-08
5.10233e-05
1.02851e-08
5.10247e-05
1.02994e-08
5.10261e-05
1.03135e-08
5.10274e-05
1.03277e-08
5.10288e-05
1.03418e-08
5.10302e-05
1.03558e-08
5.10316e-05
1.03698e-08
5.1033e-05
1.03838e-08
5.10344e-05
1.03978e-08
5.10358e-05
1.04117e-08
5.10371e-05
1.04255e-08
5.10385e-05
1.04394e-08
5.10399e-05
1.04531e-08
5.10413e-05
1.04669e-08
5.10427e-05
1.04806e-08
5.10441e-05
1.04943e-08
5.10455e-05
1.05079e-08
5.10469e-05
1.05215e-08
5.10483e-05
1.05351e-08
5.10497e-05
1.05486e-08
5.10511e-05
1.05621e-08
5.10526e-05
1.05756e-08
5.1054e-05
1.0589e-08
5.10554e-05
1.06024e-08
5.10568e-05
1.06158e-08
5.10582e-05
1.06291e-08
5.10596e-05
1.06424e-08
5.1061e-05
1.06556e-08
5.10625e-05
1.06689e-08
5.10639e-05
1.0682e-08
5.10653e-05
1.06952e-08
5.10667e-05
1.07083e-08
5.10682e-05
1.07214e-08
5.10696e-05
1.07344e-08
5.1071e-05
1.07475e-08
5.10725e-05
1.07604e-08
5.10739e-05
1.07734e-08
5.10753e-05
1.07863e-08
5.10768e-05
1.07992e-08
5.10782e-05
1.0812e-08
5.10796e-05
1.08249e-08
5.10811e-05
1.08376e-08
5.10825e-05
1.08504e-08
5.1084e-05
1.08631e-08
5.10854e-05
1.08758e-08
5.10869e-05
1.08885e-08
5.10883e-05
1.09011e-08
5.10898e-05
1.09137e-08
5.10912e-05
1.09262e-08
5.10927e-05
1.09388e-08
5.10941e-05
1.09513e-08
5.10956e-05
1.09637e-08
5.10971e-05
1.09762e-08
5.10985e-05
1.09886e-08
5.11e-05
1.10009e-08
5.11014e-05
1.10133e-08
5.11029e-05
1.10256e-08
5.11044e-05
1.10379e-08
5.11058e-05
1.10501e-08
5.11073e-05
1.10624e-08
5.11088e-05
1.10745e-08
5.11102e-05
1.10867e-08
5.11117e-05
1.10988e-08
5.11132e-05
1.11109e-08
5.11147e-05
1.1123e-08
5.11162e-05
1.1135e-08
5.11176e-05
1.11471e-08
5.11191e-05
1.1159e-08
5.11206e-05
1.1171e-08
5.11221e-05
1.11829e-08
5.11236e-05
1.11948e-08
5.11251e-05
1.12067e-08
5.11265e-05
1.12185e-08
5.1128e-05
1.12303e-08
5.11295e-05
1.12421e-08
5.1131e-05
1.12538e-08
5.11325e-05
1.12656e-08
5.1134e-05
1.12772e-08
5.11355e-05
1.12889e-08
5.1137e-05
1.13005e-08
5.11385e-05
1.13122e-08
5.114e-05
1.13237e-08
5.11415e-05
1.13353e-08
5.1143e-05
1.13468e-08
5.11445e-05
1.13583e-08
5.1146e-05
1.13698e-08
5.11475e-05
1.13812e-08
5.1149e-05
1.13926e-08
5.11506e-05
1.1404e-08
5.11521e-05
1.14154e-08
5.11536e-05
1.14267e-08
5.11551e-05
1.1438e-08
5.11566e-05
1.14493e-08
5.11581e-05
1.14605e-08
5.11597e-05
1.14718e-08
5.11612e-05
1.1483e-08
5.11627e-05
1.14941e-08
5.11642e-05
1.15053e-08
5.11657e-05
1.15165e-08
5.11673e-05
1.15276e-08
5.11688e-05
1.15387e-08
5.11703e-05
1.15498e-08
5.11719e-05
1.15608e-08
5.11734e-05
1.15718e-08
5.11749e-05
1.15828e-08
5.11765e-05
1.15937e-08
5.1178e-05
1.16046e-08
5.11795e-05
1.16155e-08
5.11811e-05
1.16265e-08
5.11826e-05
1.16374e-08
5.11842e-05
1.16483e-08
5.11857e-05
1.16592e-08
5.11872e-05
1.16701e-08
5.11888e-05
1.1681e-08
5.11903e-05
1.16918e-08
5.11919e-05
1.17026e-08
5.11934e-05
1.17134e-08
5.1195e-05
1.17241e-08
5.11965e-05
1.17349e-08
5.11981e-05
1.17457e-08
5.11996e-05
1.17565e-08
5.12012e-05
1.17673e-08
5.12027e-05
1.17782e-08
5.12043e-05
1.17892e-08
5.12059e-05
1.18001e-08
5.12074e-05
1.18111e-08
5.1209e-05
1.18221e-08
5.12105e-05
1.18331e-08
5.12121e-05
1.18441e-08
5.12137e-05
1.18551e-08
5.12152e-05
1.18663e-08
5.12168e-05
1.18776e-08
5.12184e-05
1.1889e-08
5.12199e-05
1.19006e-08