/*--------------------------------*- C++ -*----------------------------------*\
| =========                 |                                                 |
| \\      /  F ield         | OpenFOAM: The Open Source CFD Toolbox           |
|  \\    /   O peration     | Version:  2406                                  |
|   \\  /    A nd           | Website:  www.openfoam.com                      |
|    \\/     M anipulation  |                                                 |
\*---------------------------------------------------------------------------*/
FoamFile
{
    version     2.0;
    format      ascii;
    arch        "LSB;label=32;scalar=64";
    class       volVectorField;
    location    "0.4";
    object      U;
}
// * * * * * * * * * * * * * * * * * * * * * * * * * * * * * * * * * * * * * //

dimensions      [0 1 -1 0 0 0 0];

internalField   nonuniform List<vector> 
6250
(
(51.2269 0.00688463 0)
(85.5863 0.031404 0)
(72.7176 0.0458 0)
(60.0617 0.0495172 0)
(59.5161 0.0507622 0)
(63.0223 0.0540309 0)
(64.4628 0.0584935 0)
(63.9455 0.062263 0)
(63.2982 0.0649064 0)
(63.177 0.0669781 0)
(63.2941 0.0689059 0)
(63.3463 0.0707198 0)
(63.3029 0.0723258 0)
(63.2419 0.0737067 0)
(63.2021 0.0749115 0)
(63.1753 0.0759863 0)
(63.1472 0.0769512 0)
(63.1144 0.0778146 0)
(63.0802 0.078586 0)
(63.0467 0.0792773 0)
(63.0137 0.0798994 0)
(62.9807 0.0804606 0)
(62.9475 0.0809677 0)
(62.9141 0.0814265 0)
(62.8806 0.0818421 0)
(62.8472 0.0822193 0)
(62.8137 0.082562 0)
(62.7802 0.0828736 0)
(62.7467 0.0831573 0)
(62.7131 0.0834156 0)
(62.6795 0.083651 0)
(62.6459 0.0838655 0)
(62.6123 0.0840611 0)
(62.5787 0.0842392 0)
(62.5451 0.0844015 0)
(62.5114 0.0845493 0)
(62.4778 0.0846836 0)
(62.4441 0.0848056 0)
(62.4105 0.0849163 0)
(62.3769 0.0850164 0)
(62.3432 0.0851069 0)
(62.3096 0.0851882 0)
(62.276 0.0852612 0)
(62.2423 0.0853264 0)
(62.2087 0.0853844 0)
(62.1751 0.0854355 0)
(62.1415 0.0854803 0)
(62.1079 0.0855191 0)
(62.0743 0.0855524 0)
(62.0407 0.0855804 0)
(62.0071 0.0856035 0)
(61.9735 0.0856219 0)
(61.9399 0.085636 0)
(61.9063 0.085646 0)
(61.8728 0.0856521 0)
(61.8392 0.0856545 0)
(61.8057 0.0856534 0)
(61.7721 0.085649 0)
(61.7386 0.0856415 0)
(61.7051 0.0856311 0)
(61.6715 0.0856177 0)
(61.638 0.0856018 0)
(61.6045 0.0855832 0)
(61.571 0.0855622 0)
(61.5376 0.085539 0)
(61.5041 0.0855135 0)
(61.4706 0.0854858 0)
(61.4372 0.0854562 0)
(61.4037 0.0854246 0)
(61.3703 0.0853912 0)
(61.3368 0.0853561 0)
(61.3034 0.0853192 0)
(61.27 0.0852808 0)
(61.2366 0.0852407 0)
(61.2032 0.0851992 0)
(61.1698 0.0851563 0)
(61.1364 0.085112 0)
(61.103 0.0850664 0)
(61.0697 0.0850196 0)
(61.0363 0.0849715 0)
(61.003 0.0849223 0)
(60.9696 0.0848719 0)
(60.9363 0.0848205 0)
(60.903 0.084768 0)
(60.8697 0.0847146 0)
(60.8364 0.0846601 0)
(60.8031 0.0846048 0)
(60.7698 0.0845486 0)
(60.7365 0.0844915 0)
(60.7032 0.0844336 0)
(60.67 0.0843749 0)
(60.6367 0.0843154 0)
(60.6035 0.0842552 0)
(60.5702 0.0841942 0)
(60.537 0.0841326 0)
(60.5038 0.0840703 0)
(60.4706 0.0840074 0)
(60.4374 0.0839439 0)
(60.4042 0.0838797 0)
(60.371 0.083815 0)
(60.3379 0.0837497 0)
(60.3047 0.0836839 0)
(60.2715 0.0836176 0)
(60.2384 0.0835507 0)
(60.2053 0.0834834 0)
(60.1721 0.0834156 0)
(60.139 0.0833474 0)
(60.1059 0.0832787 0)
(60.0728 0.0832095 0)
(60.0397 0.08314 0)
(60.0066 0.0830701 0)
(59.9736 0.0829997 0)
(59.9405 0.0829291 0)
(59.9074 0.082858 0)
(59.8744 0.0827866 0)
(59.8414 0.0827148 0)
(59.8083 0.0826428 0)
(59.7753 0.0825704 0)
(59.7423 0.0824976 0)
(59.7093 0.0824246 0)
(59.6763 0.0823513 0)
(59.6433 0.0822777 0)
(59.6104 0.0822039 0)
(59.5774 0.0821298 0)
(59.5444 0.0820554 0)
(59.5115 0.0819808 0)
(59.4785 0.0819059 0)
(59.4456 0.0818308 0)
(59.4127 0.0817555 0)
(59.3798 0.0816799 0)
(59.3469 0.0816042 0)
(59.314 0.0815282 0)
(59.2811 0.081452 0)
(59.2482 0.0813756 0)
(59.2154 0.081299 0)
(59.1825 0.0812223 0)
(59.1496 0.0811454 0)
(59.1168 0.0810683 0)
(59.084 0.080991 0)
(59.0512 0.0809135 0)
(59.0183 0.0808359 0)
(58.9855 0.0807582 0)
(58.9527 0.0806803 0)
(58.92 0.0806022 0)
(58.8872 0.080524 0)
(58.8544 0.0804457 0)
(58.8217 0.0803672 0)
(58.7889 0.0802886 0)
(58.7562 0.0802098 0)
(58.7234 0.080131 0)
(58.6907 0.080052 0)
(58.658 0.0799729 0)
(58.6253 0.0798937 0)
(58.5926 0.0798144 0)
(58.5599 0.0797349 0)
(58.5272 0.0796554 0)
(58.4946 0.0795757 0)
(58.4619 0.079496 0)
(58.4293 0.0794161 0)
(58.3966 0.0793362 0)
(58.364 0.0792562 0)
(58.3314 0.0791761 0)
(58.2988 0.0790959 0)
(58.2662 0.0790156 0)
(58.2336 0.0789352 0)
(58.201 0.0788547 0)
(58.1684 0.0787742 0)
(58.1358 0.0786936 0)
(58.1033 0.0786129 0)
(58.0707 0.0785322 0)
(58.0382 0.0784514 0)
(58.0057 0.0783705 0)
(57.9731 0.0782895 0)
(57.9406 0.0782085 0)
(57.9081 0.0781274 0)
(57.8756 0.0780463 0)
(57.8432 0.0779651 0)
(57.8107 0.0778838 0)
(57.7782 0.0778025 0)
(57.7458 0.0777211 0)
(57.7133 0.0776397 0)
(57.6809 0.0775583 0)
(57.6485 0.0774768 0)
(57.616 0.0773952 0)
(57.5836 0.0773137 0)
(57.5512 0.077232 0)
(57.5188 0.0771504 0)
(57.4864 0.0770686 0)
(57.4541 0.0769869 0)
(57.4217 0.076905 0)
(57.3894 0.0768232 0)
(57.357 0.0767413 0)
(57.3247 0.0766593 0)
(57.2924 0.0765774 0)
(57.26 0.0764955 0)
(57.2277 0.0764135 0)
(57.1954 0.0763316 0)
(57.1631 0.0762496 0)
(57.1309 0.0761676 0)
(57.0986 0.0760856 0)
(57.0663 0.0760035 0)
(57.0341 0.0759214 0)
(57.0018 0.0758392 0)
(56.9696 0.075757 0)
(56.9374 0.0756749 0)
(56.9052 0.0755927 0)
(56.873 0.0755106 0)
(56.8408 0.0754286 0)
(56.8086 0.0753466 0)
(56.7764 0.0752646 0)
(56.7442 0.0751827 0)
(56.7121 0.0751008 0)
(56.6799 0.0750188 0)
(56.6478 0.0749369 0)
(56.6156 0.074855 0)
(56.5835 0.0747732 0)
(56.5514 0.0746915 0)
(56.5193 0.0746098 0)
(56.4872 0.0745284 0)
(56.4551 0.0744471 0)
(56.423 0.0743661 0)
(56.391 0.0742852 0)
(56.3589 0.0742047 0)
(56.3269 0.0741243 0)
(56.2948 0.0740443 0)
(56.2628 0.0739647 0)
(56.2307 0.0738855 0)
(56.1987 0.0738068 0)
(56.1667 0.0737289 0)
(56.1347 0.0736518 0)
(56.1027 0.0735758 0)
(56.0707 0.0735011 0)
(56.0387 0.073428 0)
(56.0067 0.0733568 0)
(55.9747 0.0732881 0)
(55.9427 0.0732224 0)
(55.9107 0.0731606 0)
(55.8787 0.0731039 0)
(55.8467 0.0730538 0)
(55.8147 0.0730125 0)
(55.7827 0.0729832 0)
(55.7506 0.0729698 0)
(55.7185 0.0729792 0)
(55.6863 0.0730175 0)
(55.6541 0.0731077 0)
(55.6216 0.0732377 0)
(55.5895 0.0735402 0)
(55.5552 0.0737461 0)
(55.5283 0.0747706 0)
(55.4775 0.0743674 0)
(51.2444 0.00429245 0)
(85.6492 0.0221456 0)
(72.8316 0.0360046 0)
(60.2173 0.0403303 0)
(59.7049 0.040601 0)
(63.2463 0.0420511 0)
(64.7293 0.0448355 0)
(64.2592 0.0471753 0)
(63.6596 0.0484195 0)
(63.5853 0.0490598 0)
(63.7494 0.0495962 0)
(63.8496 0.0501095 0)
(63.8551 0.0505015 0)
(63.8434 0.0507397 0)
(63.8531 0.0508696 0)
(63.8761 0.0509395 0)
(63.8979 0.050969 0)
(63.9153 0.0509617 0)
(63.9315 0.0509224 0)
(63.9483 0.0508592 0)
(63.9659 0.0507794 0)
(63.9835 0.0506881 0)
(64.0009 0.0505885 0)
(64.0181 0.0504831 0)
(64.0354 0.0503741 0)
(64.0527 0.0502636 0)
(64.0699 0.0501527 0)
(64.0871 0.0500428 0)
(64.1043 0.0499345 0)
(64.1214 0.0498285 0)
(64.1385 0.0497254 0)
(64.1555 0.0496255 0)
(64.1725 0.049529 0)
(64.1895 0.0494363 0)
(64.2064 0.0493473 0)
(64.2233 0.0492622 0)
(64.2401 0.0491811 0)
(64.2569 0.0491039 0)
(64.2737 0.0490306 0)
(64.2904 0.0489611 0)
(64.307 0.0488954 0)
(64.3237 0.0488335 0)
(64.3402 0.0487752 0)
(64.3568 0.0487204 0)
(64.3733 0.0486692 0)
(64.3897 0.0486212 0)
(64.4061 0.0485766 0)
(64.4225 0.0485351 0)
(64.4388 0.0484967 0)
(64.4551 0.0484612 0)
(64.4713 0.0484286 0)
(64.4875 0.0483987 0)
(64.5036 0.0483716 0)
(64.5197 0.048347 0)
(64.5357 0.0483249 0)
(64.5518 0.0483052 0)
(64.5677 0.0482878 0)
(64.5836 0.0482726 0)
(64.5995 0.0482596 0)
(64.6153 0.0482486 0)
(64.6311 0.0482396 0)
(64.6468 0.0482326 0)
(64.6625 0.0482274 0)
(64.6782 0.048224 0)
(64.6938 0.0482223 0)
(64.7093 0.0482222 0)
(64.7249 0.0482238 0)
(64.7403 0.0482269 0)
(64.7558 0.0482314 0)
(64.7711 0.0482374 0)
(64.7865 0.0482447 0)
(64.8018 0.0482534 0)
(64.817 0.0482633 0)
(64.8322 0.0482745 0)
(64.8474 0.0482869 0)
(64.8625 0.0483003 0)
(64.8776 0.0483149 0)
(64.8926 0.0483306 0)
(64.9076 0.0483472 0)
(64.9226 0.0483649 0)
(64.9375 0.0483835 0)
(64.9523 0.048403 0)
(64.9672 0.0484234 0)
(64.9819 0.0484446 0)
(64.9967 0.0484667 0)
(65.0114 0.0484896 0)
(65.026 0.0485132 0)
(65.0406 0.0485375 0)
(65.0552 0.0485626 0)
(65.0697 0.0485884 0)
(65.0842 0.0486148 0)
(65.0986 0.0486418 0)
(65.113 0.0486695 0)
(65.1273 0.0486978 0)
(65.1416 0.0487267 0)
(65.1559 0.0487561 0)
(65.1701 0.048786 0)
(65.1843 0.0488165 0)
(65.1984 0.0488475 0)
(65.2125 0.0488789 0)
(65.2266 0.0489108 0)
(65.2406 0.0489432 0)
(65.2545 0.048976 0)
(65.2685 0.0490093 0)
(65.2823 0.0490429 0)
(65.2962 0.049077 0)
(65.31 0.0491114 0)
(65.3237 0.0491462 0)
(65.3374 0.0491814 0)
(65.3511 0.0492169 0)
(65.3648 0.0492527 0)
(65.3783 0.0492889 0)
(65.3919 0.0493253 0)
(65.4054 0.0493621 0)
(65.4189 0.0493992 0)
(65.4323 0.0494365 0)
(65.4457 0.0494742 0)
(65.459 0.0495121 0)
(65.4723 0.0495502 0)
(65.4856 0.0495886 0)
(65.4988 0.0496273 0)
(65.512 0.0496662 0)
(65.5251 0.0497053 0)
(65.5382 0.0497446 0)
(65.5513 0.0497841 0)
(65.5643 0.0498239 0)
(65.5773 0.0498638 0)
(65.5902 0.0499039 0)
(65.6031 0.0499443 0)
(65.6159 0.0499848 0)
(65.6287 0.0500255 0)
(65.6415 0.0500663 0)
(65.6543 0.0501073 0)
(65.6669 0.0501485 0)
(65.6796 0.0501898 0)
(65.6922 0.0502313 0)
(65.7048 0.0502729 0)
(65.7173 0.0503146 0)
(65.7298 0.0503565 0)
(65.7423 0.0503985 0)
(65.7547 0.0504407 0)
(65.767 0.050483 0)
(65.7794 0.0505253 0)
(65.7917 0.0505678 0)
(65.8039 0.0506105 0)
(65.8161 0.0506532 0)
(65.8283 0.050696 0)
(65.8404 0.0507389 0)
(65.8525 0.0507819 0)
(65.8646 0.050825 0)
(65.8766 0.0508682 0)
(65.8886 0.0509115 0)
(65.9005 0.0509549 0)
(65.9124 0.0509984 0)
(65.9243 0.0510419 0)
(65.9361 0.0510855 0)
(65.9479 0.0511292 0)
(65.9596 0.0511729 0)
(65.9713 0.0512168 0)
(65.983 0.0512607 0)
(65.9946 0.0513046 0)
(66.0062 0.0513486 0)
(66.0178 0.0513927 0)
(66.0293 0.0514368 0)
(66.0408 0.051481 0)
(66.0522 0.0515252 0)
(66.0636 0.0515695 0)
(66.075 0.0516138 0)
(66.0863 0.0516582 0)
(66.0976 0.0517026 0)
(66.1088 0.0517471 0)
(66.12 0.0517916 0)
(66.1312 0.0518361 0)
(66.1423 0.0518807 0)
(66.1534 0.0519253 0)
(66.1644 0.0519699 0)
(66.1755 0.0520146 0)
(66.1864 0.0520593 0)
(66.1974 0.0521041 0)
(66.2083 0.0521489 0)
(66.2192 0.0521937 0)
(66.23 0.0522385 0)
(66.2408 0.0522833 0)
(66.2515 0.0523281 0)
(66.2622 0.0523729 0)
(66.2729 0.0524178 0)
(66.2836 0.0524627 0)
(66.2942 0.0525076 0)
(66.3047 0.0525526 0)
(66.3153 0.0525976 0)
(66.3257 0.0526427 0)
(66.3362 0.0526877 0)
(66.3466 0.0527328 0)
(66.357 0.0527778 0)
(66.3673 0.0528228 0)
(66.3776 0.0528678 0)
(66.3879 0.0529127 0)
(66.3982 0.0529577 0)
(66.4084 0.0530028 0)
(66.4185 0.0530479 0)
(66.4286 0.053093 0)
(66.4387 0.0531383 0)
(66.4488 0.0531835 0)
(66.4588 0.0532288 0)
(66.4688 0.0532741 0)
(66.4787 0.0533193 0)
(66.4886 0.0533645 0)
(66.4985 0.0534097 0)
(66.5083 0.0534549 0)
(66.5181 0.0535001 0)
(66.5279 0.0535454 0)
(66.5376 0.0535908 0)
(66.5473 0.0536364 0)
(66.5569 0.0536821 0)
(66.5665 0.053728 0)
(66.5761 0.0537739 0)
(66.5857 0.0538199 0)
(66.5952 0.053866 0)
(66.6047 0.0539122 0)
(66.6141 0.0539584 0)
(66.6235 0.0540049 0)
(66.6329 0.0540516 0)
(66.6422 0.0540986 0)
(66.6515 0.0541461 0)
(66.6607 0.0541942 0)
(66.67 0.0542428 0)
(66.6792 0.0542921 0)
(66.6883 0.0543421 0)
(66.6974 0.0543929 0)
(66.7065 0.0544447 0)
(66.7156 0.0544977 0)
(66.7246 0.0545522 0)
(66.7336 0.0546086 0)
(66.7425 0.0546674 0)
(66.7514 0.0547293 0)
(66.7603 0.0547952 0)
(66.7691 0.0548658 0)
(66.778 0.0549426 0)
(66.7867 0.0550271 0)
(66.7955 0.0551214 0)
(66.8042 0.0552285 0)
(66.8129 0.0553521 0)
(66.8216 0.0554985 0)
(66.8303 0.0556727 0)
(66.839 0.0558928 0)
(66.8478 0.0561472 0)
(66.8565 0.056534 0)
(66.8659 0.0568358 0)
(66.8735 0.0577226 0)
(66.8875 0.057521 0)
(51.2428 0.000483124 0)
(85.6368 0.00193694 0)
(72.7958 0.00350276 0)
(60.1619 0.00537272 0)
(59.6394 0.00698207 0)
(63.1726 0.00816263 0)
(64.6434 0.00907722 0)
(64.1579 0.00986447 0)
(63.5429 0.0105509 0)
(63.4541 0.0111435 0)
(63.604 0.0116729 0)
(63.6896 0.012163 0)
(63.6801 0.0126192 0)
(63.6532 0.0130428 0)
(63.6478 0.0134393 0)
(63.6556 0.0138159 0)
(63.6621 0.0141763 0)
(63.6642 0.0145218 0)
(63.665 0.0148535 0)
(63.6665 0.0151726 0)
(63.6687 0.0154806 0)
(63.6709 0.0157784 0)
(63.6729 0.0160667 0)
(63.6748 0.0163461 0)
(63.6767 0.0166171 0)
(63.6787 0.0168803 0)
(63.6806 0.0171361 0)
(63.6826 0.0173848 0)
(63.6845 0.017627 0)
(63.6865 0.0178629 0)
(63.6884 0.0180929 0)
(63.6904 0.0183172 0)
(63.6923 0.0185362 0)
(63.6943 0.0187502 0)
(63.6962 0.0189593 0)
(63.6982 0.0191638 0)
(63.7001 0.0193639 0)
(63.7021 0.0195598 0)
(63.7041 0.0197518 0)
(63.7061 0.01994 0)
(63.7081 0.0201246 0)
(63.7101 0.0203057 0)
(63.7121 0.0204834 0)
(63.7142 0.020658 0)
(63.7162 0.0208296 0)
(63.7183 0.0209983 0)
(63.7203 0.0211641 0)
(63.7224 0.0213273 0)
(63.7245 0.0214879 0)
(63.7266 0.0216461 0)
(63.7287 0.0218018 0)
(63.7308 0.0219553 0)
(63.7329 0.0221065 0)
(63.735 0.0222556 0)
(63.7372 0.0224027 0)
(63.7393 0.0225478 0)
(63.7415 0.022691 0)
(63.7437 0.0228323 0)
(63.7459 0.0229719 0)
(63.7481 0.0231097 0)
(63.7503 0.0232458 0)
(63.7525 0.0233804 0)
(63.7548 0.0235134 0)
(63.757 0.0236448 0)
(63.7593 0.0237748 0)
(63.7616 0.0239034 0)
(63.7639 0.0240306 0)
(63.7662 0.0241564 0)
(63.7685 0.024281 0)
(63.7708 0.0244043 0)
(63.7731 0.0245264 0)
(63.7755 0.0246473 0)
(63.7778 0.024767 0)
(63.7802 0.0248856 0)
(63.7826 0.0250031 0)
(63.785 0.0251195 0)
(63.7874 0.0252349 0)
(63.7898 0.0253493 0)
(63.7923 0.0254627 0)
(63.7947 0.0255752 0)
(63.7972 0.0256867 0)
(63.7996 0.0257973 0)
(63.8021 0.025907 0)
(63.8046 0.0260159 0)
(63.8071 0.0261239 0)
(63.8096 0.026231 0)
(63.8121 0.0263374 0)
(63.8147 0.026443 0)
(63.8172 0.0265478 0)
(63.8198 0.0266518 0)
(63.8224 0.0267552 0)
(63.825 0.0268578 0)
(63.8276 0.0269596 0)
(63.8302 0.0270608 0)
(63.8328 0.0271614 0)
(63.8354 0.0272612 0)
(63.8381 0.0273604 0)
(63.8407 0.027459 0)
(63.8434 0.027557 0)
(63.8461 0.0276543 0)
(63.8488 0.0277511 0)
(63.8515 0.0278472 0)
(63.8542 0.0279428 0)
(63.8569 0.0280378 0)
(63.8597 0.0281322 0)
(63.8624 0.0282262 0)
(63.8652 0.0283195 0)
(63.868 0.0284124 0)
(63.8708 0.0285047 0)
(63.8736 0.0285965 0)
(63.8764 0.0286878 0)
(63.8792 0.0287786 0)
(63.882 0.028869 0)
(63.8849 0.0289588 0)
(63.8877 0.0290482 0)
(63.8906 0.0291371 0)
(63.8935 0.0292256 0)
(63.8964 0.0293136 0)
(63.8993 0.0294011 0)
(63.9022 0.0294883 0)
(63.9051 0.029575 0)
(63.9081 0.0296612 0)
(63.911 0.0297471 0)
(63.914 0.0298325 0)
(63.917 0.0299176 0)
(63.9199 0.0300022 0)
(63.9229 0.0300864 0)
(63.9259 0.0301702 0)
(63.929 0.0302537 0)
(63.932 0.0303367 0)
(63.935 0.0304194 0)
(63.9381 0.0305017 0)
(63.9412 0.0305837 0)
(63.9442 0.0306653 0)
(63.9473 0.0307465 0)
(63.9504 0.0308274 0)
(63.9535 0.0309079 0)
(63.9567 0.030988 0)
(63.9598 0.0310678 0)
(63.9629 0.0311473 0)
(63.9661 0.0312264 0)
(63.9692 0.0313052 0)
(63.9724 0.0313837 0)
(63.9756 0.0314618 0)
(63.9788 0.0315396 0)
(63.982 0.0316171 0)
(63.9853 0.0316943 0)
(63.9885 0.0317711 0)
(63.9917 0.0318477 0)
(63.995 0.0319239 0)
(63.9983 0.0319998 0)
(64.0015 0.0320754 0)
(64.0048 0.0321507 0)
(64.0081 0.0322257 0)
(64.0114 0.0323004 0)
(64.0148 0.0323749 0)
(64.0181 0.032449 0)
(64.0214 0.0325228 0)
(64.0248 0.0325964 0)
(64.0281 0.0326697 0)
(64.0315 0.0327427 0)
(64.0349 0.0328154 0)
(64.0383 0.0328878 0)
(64.0417 0.03296 0)
(64.0451 0.0330318 0)
(64.0486 0.0331034 0)
(64.052 0.0331748 0)
(64.0555 0.0332459 0)
(64.0589 0.0333167 0)
(64.0624 0.0333872 0)
(64.0659 0.0334575 0)
(64.0694 0.0335276 0)
(64.0729 0.0335973 0)
(64.0764 0.0336668 0)
(64.0799 0.0337361 0)
(64.0835 0.033805 0)
(64.087 0.0338738 0)
(64.0906 0.0339423 0)
(64.0941 0.0340106 0)
(64.0977 0.0340786 0)
(64.1013 0.0341465 0)
(64.1049 0.034214 0)
(64.1085 0.0342813 0)
(64.1121 0.0343484 0)
(64.1158 0.0344152 0)
(64.1194 0.0344817 0)
(64.123 0.034548 0)
(64.1267 0.0346141 0)
(64.1304 0.03468 0)
(64.1341 0.0347456 0)
(64.1378 0.0348111 0)
(64.1415 0.0348764 0)
(64.1452 0.0349415 0)
(64.1489 0.0350064 0)
(64.1526 0.0350711 0)
(64.1564 0.0351355 0)
(64.1601 0.0351996 0)
(64.1639 0.0352634 0)
(64.1677 0.035327 0)
(64.1714 0.0353904 0)
(64.1752 0.0354536 0)
(64.179 0.0355167 0)
(64.1829 0.0355797 0)
(64.1867 0.0356426 0)
(64.1905 0.0357053 0)
(64.1944 0.0357679 0)
(64.1982 0.0358303 0)
(64.2021 0.0358924 0)
(64.2059 0.0359543 0)
(64.2098 0.0360159 0)
(64.2137 0.0360774 0)
(64.2176 0.0361386 0)
(64.2215 0.0361998 0)
(64.2255 0.0362609 0)
(64.2294 0.036322 0)
(64.2333 0.0363831 0)
(64.2373 0.0364443 0)
(64.2412 0.0365054 0)
(64.2452 0.0365665 0)
(64.2492 0.0366275 0)
(64.2532 0.0366884 0)
(64.2572 0.0367492 0)
(64.2612 0.0368101 0)
(64.2652 0.0368711 0)
(64.2692 0.0369323 0)
(64.2733 0.036994 0)
(64.2773 0.037056 0)
(64.2814 0.0371187 0)
(64.2854 0.037182 0)
(64.2895 0.037246 0)
(64.2936 0.0373108 0)
(64.2977 0.0373766 0)
(64.3018 0.0374434 0)
(64.3059 0.0375118 0)
(64.31 0.037582 0)
(64.3141 0.0376545 0)
(64.3183 0.03773 0)
(64.3224 0.037809 0)
(64.3266 0.0378922 0)
(64.3307 0.0379804 0)
(64.3349 0.038074 0)
(64.3391 0.0381738 0)
(64.3433 0.0382798 0)
(64.3476 0.0383919 0)
(64.3519 0.0385074 0)
(64.3562 0.038625 0)
(64.3605 0.0387227 0)
(64.3651 0.0388219 0)
(64.3686 0.0387754 0)
(64.3757 0.0388737 0)
(51.2453 0.000893337 0)
(85.6438 0.00551971 0)
(72.8061 0.0106488 0)
(60.172 0.0147765 0)
(59.6472 0.0177809 0)
(63.1789 0.0201508 0)
(64.6493 0.0223185 0)
(64.1636 0.0243913 0)
(63.5481 0.0262737 0)
(63.4587 0.0278934 0)
(63.608 0.0292746 0)
(63.693 0.0304775 0)
(63.683 0.0315396 0)
(63.6557 0.0324732 0)
(63.6497 0.0332863 0)
(63.657 0.0339921 0)
(63.6631 0.0346062 0)
(63.6648 0.0351413 0)
(63.6651 0.035607 0)
(63.6662 0.0360117 0)
(63.6679 0.0363628 0)
(63.6697 0.0366672 0)
(63.6713 0.0369307 0)
(63.6728 0.0371585 0)
(63.6743 0.037355 0)
(63.6759 0.0375241 0)
(63.6774 0.0376693 0)
(63.679 0.0377934 0)
(63.6805 0.0378991 0)
(63.682 0.0379887 0)
(63.6836 0.0380642 0)
(63.6851 0.0381273 0)
(63.6866 0.0381797 0)
(63.6882 0.0382225 0)
(63.6897 0.0382572 0)
(63.6912 0.0382846 0)
(63.6928 0.0383057 0)
(63.6943 0.0383213 0)
(63.6958 0.0383322 0)
(63.6974 0.0383389 0)
(63.6989 0.0383419 0)
(63.7004 0.0383419 0)
(63.702 0.0383392 0)
(63.7035 0.0383342 0)
(63.7051 0.0383272 0)
(63.7066 0.0383185 0)
(63.7082 0.0383084 0)
(63.7097 0.038297 0)
(63.7113 0.0382847 0)
(63.7128 0.0382716 0)
(63.7144 0.0382577 0)
(63.716 0.0382433 0)
(63.7175 0.0382285 0)
(63.7191 0.0382134 0)
(63.7207 0.0381981 0)
(63.7222 0.0381826 0)
(63.7238 0.038167 0)
(63.7254 0.0381514 0)
(63.727 0.0381359 0)
(63.7285 0.0381204 0)
(63.7301 0.038105 0)
(63.7317 0.0380898 0)
(63.7333 0.0380748 0)
(63.7349 0.0380599 0)
(63.7365 0.0380453 0)
(63.7381 0.0380309 0)
(63.7397 0.0380168 0)
(63.7413 0.038003 0)
(63.7429 0.0379894 0)
(63.7445 0.0379761 0)
(63.7461 0.0379632 0)
(63.7477 0.0379505 0)
(63.7493 0.0379381 0)
(63.7509 0.037926 0)
(63.7525 0.0379142 0)
(63.7541 0.0379027 0)
(63.7557 0.0378915 0)
(63.7574 0.0378807 0)
(63.759 0.0378701 0)
(63.7606 0.0378598 0)
(63.7622 0.0378498 0)
(63.7639 0.0378401 0)
(63.7655 0.0378307 0)
(63.7671 0.0378216 0)
(63.7687 0.0378127 0)
(63.7704 0.0378042 0)
(63.772 0.0377959 0)
(63.7737 0.0377879 0)
(63.7753 0.0377801 0)
(63.777 0.0377726 0)
(63.7786 0.0377654 0)
(63.7802 0.0377584 0)
(63.7819 0.0377516 0)
(63.7835 0.0377452 0)
(63.7852 0.0377389 0)
(63.7869 0.0377329 0)
(63.7885 0.0377271 0)
(63.7902 0.0377216 0)
(63.7918 0.0377162 0)
(63.7935 0.0377111 0)
(63.7952 0.0377062 0)
(63.7968 0.0377016 0)
(63.7985 0.0376971 0)
(63.8002 0.0376929 0)
(63.8019 0.0376888 0)
(63.8035 0.037685 0)
(63.8052 0.0376813 0)
(63.8069 0.0376778 0)
(63.8086 0.0376746 0)
(63.8103 0.0376715 0)
(63.8119 0.0376686 0)
(63.8136 0.0376659 0)
(63.8153 0.0376633 0)
(63.817 0.037661 0)
(63.8187 0.0376588 0)
(63.8204 0.0376568 0)
(63.8221 0.0376549 0)
(63.8238 0.0376533 0)
(63.8255 0.0376517 0)
(63.8272 0.0376504 0)
(63.8289 0.0376492 0)
(63.8306 0.0376481 0)
(63.8323 0.0376472 0)
(63.834 0.0376465 0)
(63.8358 0.0376459 0)
(63.8375 0.0376455 0)
(63.8392 0.0376452 0)
(63.8409 0.037645 0)
(63.8426 0.037645 0)
(63.8443 0.0376451 0)
(63.8461 0.0376454 0)
(63.8478 0.0376458 0)
(63.8495 0.0376463 0)
(63.8513 0.0376469 0)
(63.853 0.0376477 0)
(63.8547 0.0376487 0)
(63.8565 0.0376497 0)
(63.8582 0.0376509 0)
(63.8599 0.0376522 0)
(63.8617 0.0376536 0)
(63.8634 0.0376552 0)
(63.8652 0.0376568 0)
(63.8669 0.0376586 0)
(63.8687 0.0376605 0)
(63.8704 0.0376625 0)
(63.8722 0.0376646 0)
(63.8739 0.0376669 0)
(63.8757 0.0376692 0)
(63.8775 0.0376717 0)
(63.8792 0.0376743 0)
(63.881 0.037677 0)
(63.8828 0.0376798 0)
(63.8845 0.0376827 0)
(63.8863 0.0376856 0)
(63.8881 0.0376887 0)
(63.8898 0.0376919 0)
(63.8916 0.0376952 0)
(63.8934 0.0376986 0)
(63.8952 0.0377021 0)
(63.897 0.0377057 0)
(63.8987 0.0377095 0)
(63.9005 0.0377133 0)
(63.9023 0.0377171 0)
(63.9041 0.0377211 0)
(63.9059 0.0377252 0)
(63.9077 0.0377294 0)
(63.9095 0.0377336 0)
(63.9113 0.037738 0)
(63.9131 0.0377424 0)
(63.9149 0.0377469 0)
(63.9167 0.0377516 0)
(63.9185 0.0377563 0)
(63.9203 0.0377611 0)
(63.9221 0.037766 0)
(63.9239 0.037771 0)
(63.9257 0.037776 0)
(63.9276 0.0377811 0)
(63.9294 0.0377863 0)
(63.9312 0.0377916 0)
(63.933 0.0377969 0)
(63.9348 0.0378024 0)
(63.9367 0.0378079 0)
(63.9385 0.0378136 0)
(63.9403 0.0378194 0)
(63.9422 0.0378252 0)
(63.944 0.0378311 0)
(63.9458 0.0378371 0)
(63.9477 0.0378431 0)
(63.9495 0.0378491 0)
(63.9514 0.0378553 0)
(63.9532 0.0378614 0)
(63.955 0.0378677 0)
(63.9569 0.0378741 0)
(63.9587 0.0378806 0)
(63.9606 0.0378872 0)
(63.9624 0.037894 0)
(63.9643 0.0379009 0)
(63.9662 0.0379078 0)
(63.968 0.0379148 0)
(63.9699 0.0379218 0)
(63.9718 0.0379288 0)
(63.9736 0.0379358 0)
(63.9755 0.037943 0)
(63.9774 0.0379502 0)
(63.9792 0.0379575 0)
(63.9811 0.0379651 0)
(63.983 0.0379728 0)
(63.9849 0.0379807 0)
(63.9868 0.0379888 0)
(63.9886 0.037997 0)
(63.9905 0.0380053 0)
(63.9924 0.0380136 0)
(63.9943 0.038022 0)
(63.9962 0.0380305 0)
(63.9981 0.0380391 0)
(64 0.0380479 0)
(64.0019 0.038057 0)
(64.0038 0.0380663 0)
(64.0057 0.0380761 0)
(64.0076 0.0380862 0)
(64.0095 0.0380967 0)
(64.0114 0.0381075 0)
(64.0133 0.0381187 0)
(64.0152 0.0381302 0)
(64.0171 0.0381421 0)
(64.0191 0.0381545 0)
(64.021 0.0381675 0)
(64.0229 0.0381812 0)
(64.0248 0.0381959 0)
(64.0267 0.0382116 0)
(64.0287 0.0382286 0)
(64.0306 0.0382469 0)
(64.0325 0.0382668 0)
(64.0345 0.0382882 0)
(64.0364 0.0383115 0)
(64.0383 0.0383369 0)
(64.0403 0.0383645 0)
(64.0422 0.0383949 0)
(64.0442 0.0384284 0)
(64.0461 0.0384655 0)
(64.0481 0.0385062 0)
(64.0501 0.0385508 0)
(64.052 0.0385988 0)
(64.054 0.0386494 0)
(64.056 0.0387003 0)
(64.058 0.0387507 0)
(64.06 0.0387898 0)
(64.0622 0.0388329 0)
(64.0638 0.0388144 0)
(64.067 0.0388906 0)
(51.2463 0.000615889 0)
(85.6458 0.00328495 0)
(72.8064 0.00577668 0)
(60.1701 0.00747469 0)
(59.6441 0.00864139 0)
(63.1755 0.00964776 0)
(64.6456 0.010621 0)
(64.1595 0.0115121 0)
(63.5435 0.0122584 0)
(63.4537 0.0128576 0)
(63.6027 0.0133481 0)
(63.6876 0.0137648 0)
(63.6775 0.0141229 0)
(63.65 0.0144272 0)
(63.644 0.0146835 0)
(63.6513 0.0149005 0)
(63.6573 0.0150868 0)
(63.659 0.0152486 0)
(63.6593 0.0153903 0)
(63.6605 0.0155154 0)
(63.6623 0.0156271 0)
(63.6642 0.0157282 0)
(63.6658 0.0158209 0)
(63.6674 0.0159069 0)
(63.669 0.0159878 0)
(63.6707 0.0160647 0)
(63.6723 0.0161385 0)
(63.6739 0.0162102 0)
(63.6755 0.0162803 0)
(63.6772 0.0163493 0)
(63.6788 0.0164177 0)
(63.6804 0.0164858 0)
(63.682 0.0165539 0)
(63.6836 0.0166221 0)
(63.6853 0.0166906 0)
(63.6869 0.0167596 0)
(63.6885 0.0168291 0)
(63.6901 0.0168992 0)
(63.6917 0.0169699 0)
(63.6934 0.0170412 0)
(63.695 0.0171133 0)
(63.6966 0.017186 0)
(63.6982 0.0172593 0)
(63.6999 0.0173333 0)
(63.7015 0.0174079 0)
(63.7031 0.0174831 0)
(63.7047 0.0175589 0)
(63.7064 0.0176352 0)
(63.708 0.017712 0)
(63.7096 0.0177893 0)
(63.7113 0.017867 0)
(63.7129 0.0179451 0)
(63.7145 0.0180236 0)
(63.7162 0.0181024 0)
(63.7178 0.0181816 0)
(63.7195 0.018261 0)
(63.7211 0.0183406 0)
(63.7228 0.0184205 0)
(63.7244 0.0185006 0)
(63.7261 0.0185809 0)
(63.7277 0.0186612 0)
(63.7294 0.0187418 0)
(63.731 0.0188224 0)
(63.7327 0.0189031 0)
(63.7344 0.0189838 0)
(63.736 0.0190646 0)
(63.7377 0.0191454 0)
(63.7393 0.0192262 0)
(63.741 0.0193069 0)
(63.7427 0.0193877 0)
(63.7444 0.0194684 0)
(63.746 0.019549 0)
(63.7477 0.0196296 0)
(63.7494 0.0197101 0)
(63.7511 0.0197905 0)
(63.7528 0.0198708 0)
(63.7544 0.0199509 0)
(63.7561 0.020031 0)
(63.7578 0.0201109 0)
(63.7595 0.0201907 0)
(63.7612 0.0202703 0)
(63.7629 0.0203497 0)
(63.7646 0.020429 0)
(63.7663 0.0205081 0)
(63.768 0.020587 0)
(63.7697 0.0206658 0)
(63.7714 0.0207444 0)
(63.7731 0.0208227 0)
(63.7749 0.0209009 0)
(63.7766 0.0209788 0)
(63.7783 0.0210566 0)
(63.78 0.0211341 0)
(63.7817 0.0212114 0)
(63.7834 0.0212885 0)
(63.7852 0.0213654 0)
(63.7869 0.021442 0)
(63.7886 0.0215184 0)
(63.7904 0.0215946 0)
(63.7921 0.0216706 0)
(63.7938 0.0217463 0)
(63.7956 0.0218217 0)
(63.7973 0.021897 0)
(63.799 0.0219719 0)
(63.8008 0.0220467 0)
(63.8025 0.0221212 0)
(63.8043 0.0221954 0)
(63.806 0.0222694 0)
(63.8078 0.0223432 0)
(63.8095 0.0224167 0)
(63.8113 0.0224899 0)
(63.8131 0.0225629 0)
(63.8148 0.0226356 0)
(63.8166 0.0227081 0)
(63.8183 0.0227804 0)
(63.8201 0.0228523 0)
(63.8219 0.0229241 0)
(63.8237 0.0229955 0)
(63.8254 0.0230667 0)
(63.8272 0.0231377 0)
(63.829 0.0232084 0)
(63.8308 0.0232788 0)
(63.8325 0.023349 0)
(63.8343 0.0234189 0)
(63.8361 0.0234886 0)
(63.8379 0.023558 0)
(63.8397 0.0236272 0)
(63.8415 0.0236961 0)
(63.8433 0.0237647 0)
(63.8451 0.0238331 0)
(63.8469 0.0239012 0)
(63.8487 0.0239691 0)
(63.8505 0.0240368 0)
(63.8523 0.0241041 0)
(63.8541 0.0241712 0)
(63.8559 0.0242381 0)
(63.8577 0.0243047 0)
(63.8595 0.0243711 0)
(63.8613 0.0244372 0)
(63.8631 0.024503 0)
(63.8649 0.0245686 0)
(63.8668 0.024634 0)
(63.8686 0.0246991 0)
(63.8704 0.024764 0)
(63.8722 0.0248286 0)
(63.8741 0.024893 0)
(63.8759 0.0249571 0)
(63.8777 0.025021 0)
(63.8795 0.0250846 0)
(63.8814 0.025148 0)
(63.8832 0.0252111 0)
(63.8851 0.025274 0)
(63.8869 0.0253367 0)
(63.8887 0.0253991 0)
(63.8906 0.0254613 0)
(63.8924 0.0255232 0)
(63.8943 0.0255849 0)
(63.8961 0.0256464 0)
(63.898 0.0257076 0)
(63.8998 0.0257686 0)
(63.9017 0.0258293 0)
(63.9035 0.0258899 0)
(63.9054 0.0259502 0)
(63.9072 0.0260102 0)
(63.9091 0.02607 0)
(63.911 0.0261296 0)
(63.9128 0.026189 0)
(63.9147 0.0262481 0)
(63.9166 0.0263071 0)
(63.9184 0.0263657 0)
(63.9203 0.0264242 0)
(63.9222 0.0264824 0)
(63.9241 0.0265404 0)
(63.9259 0.0265982 0)
(63.9278 0.0266557 0)
(63.9297 0.0267131 0)
(63.9316 0.0267702 0)
(63.9335 0.0268272 0)
(63.9354 0.0268839 0)
(63.9373 0.0269403 0)
(63.9391 0.0269966 0)
(63.941 0.0270526 0)
(63.9429 0.0271084 0)
(63.9448 0.0271639 0)
(63.9467 0.0272193 0)
(63.9486 0.0272745 0)
(63.9505 0.0273295 0)
(63.9524 0.0273843 0)
(63.9543 0.027439 0)
(63.9562 0.0274934 0)
(63.9581 0.0275476 0)
(63.96 0.0276016 0)
(63.962 0.0276553 0)
(63.9639 0.0277088 0)
(63.9658 0.0277621 0)
(63.9677 0.0278152 0)
(63.9696 0.0278681 0)
(63.9715 0.0279209 0)
(63.9735 0.0279735 0)
(63.9754 0.028026 0)
(63.9773 0.0280784 0)
(63.9792 0.0281306 0)
(63.9812 0.0281826 0)
(63.9831 0.0282343 0)
(63.985 0.0282859 0)
(63.9869 0.0283372 0)
(63.9889 0.0283883 0)
(63.9908 0.0284393 0)
(63.9928 0.0284902 0)
(63.9947 0.0285409 0)
(63.9966 0.0285917 0)
(63.9986 0.0286424 0)
(64.0005 0.028693 0)
(64.0025 0.0287436 0)
(64.0044 0.0287941 0)
(64.0064 0.0288444 0)
(64.0083 0.0288946 0)
(64.0103 0.0289447 0)
(64.0122 0.0289947 0)
(64.0142 0.0290447 0)
(64.0161 0.0290949 0)
(64.0181 0.0291451 0)
(64.02 0.0291956 0)
(64.022 0.0292463 0)
(64.0239 0.0292973 0)
(64.0259 0.0293486 0)
(64.0279 0.0294001 0)
(64.0298 0.0294519 0)
(64.0318 0.0295041 0)
(64.0338 0.0295566 0)
(64.0357 0.0296097 0)
(64.0377 0.0296636 0)
(64.0397 0.0297184 0)
(64.0417 0.0297742 0)
(64.0436 0.0298313 0)
(64.0456 0.0298897 0)
(64.0476 0.0299496 0)
(64.0496 0.0300108 0)
(64.0516 0.0300734 0)
(64.0536 0.0301373 0)
(64.0556 0.0302025 0)
(64.0576 0.0302689 0)
(64.0596 0.0303362 0)
(64.0616 0.030404 0)
(64.0636 0.0304713 0)
(64.0656 0.0305367 0)
(64.0677 0.0305987 0)
(64.0697 0.030654 0)
(64.0719 0.0307018 0)
(64.0735 0.0307332 0)
(64.0767 0.0307639 0)
(51.2473 0.000493271 0)
(85.6482 0.00278374 0)
(72.8093 0.00515953 0)
(60.1729 0.00706919 0)
(59.6468 0.00867706 0)
(63.1781 0.0102201 0)
(64.6483 0.0117461 0)
(64.1621 0.0131997 0)
(63.546 0.014539 0)
(63.4561 0.0157642 0)
(63.605 0.0168923 0)
(63.6898 0.0179353 0)
(63.6796 0.018897 0)
(63.6521 0.0197796 0)
(63.6459 0.0205876 0)
(63.6531 0.0213271 0)
(63.6591 0.022004 0)
(63.6607 0.0226236 0)
(63.6609 0.0231903 0)
(63.662 0.0237084 0)
(63.6637 0.0241823 0)
(63.6655 0.0246157 0)
(63.6671 0.0250122 0)
(63.6686 0.0253751 0)
(63.6701 0.0257075 0)
(63.6716 0.0260119 0)
(63.6732 0.0262909 0)
(63.6747 0.0265468 0)
(63.6763 0.0267817 0)
(63.6778 0.0269975 0)
(63.6794 0.0271958 0)
(63.6809 0.0273782 0)
(63.6825 0.0275462 0)
(63.6841 0.0277009 0)
(63.6856 0.0278437 0)
(63.6872 0.0279754 0)
(63.6887 0.0280971 0)
(63.6903 0.0282096 0)
(63.6919 0.0283138 0)
(63.6934 0.0284102 0)
(63.695 0.0284997 0)
(63.6966 0.0285826 0)
(63.6982 0.0286597 0)
(63.6997 0.0287313 0)
(63.7013 0.0287979 0)
(63.7029 0.0288599 0)
(63.7045 0.0289176 0)
(63.7061 0.0289715 0)
(63.7077 0.0290217 0)
(63.7093 0.0290686 0)
(63.7109 0.0291124 0)
(63.7125 0.0291533 0)
(63.7141 0.0291916 0)
(63.7157 0.0292274 0)
(63.7173 0.0292609 0)
(63.7189 0.0292923 0)
(63.7205 0.0293218 0)
(63.7222 0.0293493 0)
(63.7238 0.0293752 0)
(63.7254 0.0293994 0)
(63.727 0.0294222 0)
(63.7287 0.0294435 0)
(63.7303 0.0294635 0)
(63.7319 0.0294823 0)
(63.7336 0.0294999 0)
(63.7352 0.0295165 0)
(63.7369 0.029532 0)
(63.7385 0.0295466 0)
(63.7402 0.0295603 0)
(63.7418 0.0295731 0)
(63.7435 0.0295852 0)
(63.7451 0.0295965 0)
(63.7468 0.0296071 0)
(63.7485 0.029617 0)
(63.7501 0.0296263 0)
(63.7518 0.029635 0)
(63.7535 0.0296432 0)
(63.7552 0.0296509 0)
(63.7568 0.029658 0)
(63.7585 0.0296647 0)
(63.7602 0.029671 0)
(63.7619 0.0296769 0)
(63.7636 0.0296823 0)
(63.7653 0.0296874 0)