/*--------------------------------*- C++ -*----------------------------------*\
| =========                 |                                                 |
| \\      /  F ield         | OpenFOAM: The Open Source CFD Toolbox           |
|  \\    /   O peration     | Version:  2406                                  |
|   \\  /    A nd           | Website:  www.openfoam.com                      |
|    \\/     M anipulation  |                                                 |
\*---------------------------------------------------------------------------*/
FoamFile
{
    version     2.0;
    format      ascii;
    arch        "LSB;label=32;scalar=64";
    class       volScalarField;
    location    "0.15";
    object      alpha.glycerin;
}
// * * * * * * * * * * * * * * * * * * * * * * * * * * * * * * * * * * * * * //

dimensions      [0 0 0 0 0 0 0];

internalField   nonuniform List<scalar> 
6250
(
5.92094e-86
5.45094e-85
1.22595e-82
1.24957e-80
9.42772e-79
5.99124e-77
3.46633e-75
1.83075e-73
8.61037e-72
3.54588e-70
1.27034e-68
3.94884e-67
1.06402e-65
2.48224e-64
4.99912e-63
8.72992e-62
1.34216e-60
1.81326e-59
2.04196e-58
2.05735e-57
3.54644e-56
7.96467e-55
3.80422e-48
1.52877e-44
-1.80509e-32
-7.43064e-31
-2.18689e-17
-8.12976e-16
-1.14563e-14
-4.26733e-14
0.265631
0.675623
0.835506
0.979403
0.993861
0.993875
0.993881
0.993886
0.99389
0.995558
0.996444
0.997181
0.997823
0.998229
0.998528
0.998801
0.999069
0.999291
0.999423
0.999477
0.999495
0.999602
0.999718
0.999758
0.999789
0.999809
0.999823
0.999835
0.999846
0.999859
0.999874
0.999888
0.999903
0.999915
0.999926
0.999935
0.999943
0.999949
0.999954
0.999957
0.999959
0.99996
0.999961
0.999961
0.999961
0.999961
0.999962
0.999962
0.999962
0.999962
0.999962
0.999962
0.999921
0.9999
0.999956
0.999998
0.999999
0.999999
0.999999
1
1
1
1
1
1
0.999989
0.999978
0.999972
0.999978
0.999993
1
1
1
0.999993
0.999956
0.999956
0.999956
0.999956
0.999956
0.999968
0.999998
1
1
1
1
0.999977
0.99995
0.99995
0.999951
0.999949
0.999947
0.999947
0.999947
0.999975
0.999994
0.999977
0.999975
0.99998
0.999988
0.999968
0.999954
0.999954
0.999954
0.999954
0.999954
0.999954
0.999968
0.999998
0.999999
1
0.999998
0.999975
0.999973
0.999973
0.999973
0.999973
0.999974
0.999973
0.999973
0.999973
0.999979
0.999993
0.999993
0.999993
0.999995
0.999997
0.999989
0.999977
0.999977
0.999977
0.999977
0.999977
0.999977
0.999977
0.999987
0.999998
0.999998
0.999998
0.999999
0.999999
0.999999
0.999999
0.999999
0.999999
0.999996
0.999993
0.999993
0.999994
0.999998
0.999995
0.999981
0.99998
0.99998
0.999988
1
0.999987
0.999966
0.999966
0.999966
0.999966
0.999966
0.999966
0.999966
0.999966
0.999966
0.999966
0.999966
0.999986
1
1
0.999993
0.99998
0.999979
0.999979
0.999979
0.999979
0.999988
1
1
1
1
1
1.00001
1.00001
1.00001
1.00001
1.00001
1.00001
1.00001
1.00001
1
1
1
1
1
1
0.999996
0.999994
0.999995
0.999999
1
1
1
1
1
1.00001
1.00001
1.00001
1.00001
1.00001
1.00001
1.00001
1.00001
1.00001
1.00001
1.00001
1.00001
1.00001
1.00001
1.00001
1.36344e-86
8.22997e-86
1.81642e-83
1.25378e-81
7.69246e-80
4.55886e-78
2.44052e-76
1.14204e-74
4.73881e-73
1.75112e-71
5.70518e-70
1.62908e-68
4.0633e-67
8.87409e-66
1.69574e-64
2.83945e-63
4.26423e-62
5.72314e-61
6.56872e-60
6.70612e-59
1.10477e-57
2.46815e-56
9.05988e-50
1.0968e-45
-1.24791e-33
-5.7773e-32
-1.88094e-18
-8.47524e-17
-1.71814e-15
3.06989e-09
5.40162e-10
4.83597e-10
3.90713e-10
0.0147109
0.0654205
0.151393
0.244977
0.369629
0.469799
0.535949
0.567542
0.578287
0.580936
0.585826
0.59882
0.621408
0.653249
0.693926
0.742193
0.797747
0.858629
0.881186
0.885436
0.891614
0.900175
0.908435
0.914478
0.920291
0.926628
0.933427
0.940621
0.948098
0.955297
0.961895
0.967968
0.97371
0.979185
0.984286
0.98883
0.992657
0.995686
0.997907
0.999326
0.999911
0.999961
0.999961
0.999962
0.999962
0.999962
0.999962
0.999962
0.999962
0.99994
0.999926
0.999974
0.999996
0.999998
0.999999
0.999999
1
1
1
1
1
1
0.999989
0.999979
0.999977
0.999987
0.999995
1
1
1
0.999998
0.999997
0.999998
0.999999
0.999999
0.999999
1
1
1
1
1
1
1
1
1.00001
1.00001
1.00002
1.00002
1.00002
1.00003
1.00003
1.00003
1.00004
1.00004
1.00004
1.00004
1.00004
1.00004
1.00003
1.00003
1.00003
1.00003
1.00003
1.00003
1.00003
1.00003
1.00003
1.00003
1.00003
1.00004
1.00004
1.00004
1.00004
1.00004
1.00004
1.00004
1.00004
1.00004
1.00005
1.00005
1.00005
1.00005
1.00005
1.00005
1.00005
1.00005
1.00005
1.00005
1.00005
1.00005
1.00005
1.00005
1.00005
1.00005
1.00005
1.00005
1.00005
1.00005
1.00005
1.00005
1.00005
1.00005
1.00005
1.00005
1.00005
1.00004
1.00004
1.00004
1.00004
1.00004
1.00004
1.00004
1.00004
1.00004
1.00003
1.00003
1.00003
1.00003
1.00003
1.00003
1.00003
1.00003
1.00003
1.00003
1.00003
1.00003
1.00003
1.00003
1.00003
1.00003
1.00003
1.00003
1.00003
1.00003
1.00003
1.00003
1.00002
1.00002
1.00002
1.00002
1.00002
1.00001
1.00001
1.00001
1.00001
1.00001
1
1
1
0.999968
0.999951
0.99995
0.99995
0.99995
0.99995
0.99995
0.99995
0.99995
0.99995
0.99995
0.999972
0.999999
0.999999
0.999999
0.999999
1
1
1
0.999999
0.999996
0.999996
0.999996
0.999996
0.999999
1
1
1
5.50923e-88
2.84072e-87
7.51424e-85
6.55109e-83
2.25676e-80
3.295e-79
1.53473e-78
1.01121e-77
5.51215e-77
-1.60394e-74
7.53892e-74
-1.78279e-72
5.66139e-71
1.56119e-69
-4.10532e-67
5.14321e-67
-1.89161e-65
1.20165e-64
2.25774e-63
-4.26474e-61
-1.54255e-60
-2.77482e-59
-6.34963e-54
-2.79662e-52
-1.34551e-34
-7.01316e-33
-2.53173e-19
-1.33855e-17
-3.43768e-16
5.32272e-10
1.23169e-09
1.24226e-09
2.97626e-10
2.67062e-10
2.0846e-06
1.63125e-06
2.66209e-07
1.17131e-07
1.16368e-07
1.16329e-07
1.16368e-07
0.000222103
0.000774974
0.000873289
0.000653385
0.00033285
9.77436e-05
1.33907e-06
2.39296e-07
2.39396e-07
0.00191306
0.0302965
0.0885559
0.136617
0.14225
0.138024
0.130438
0.129519
0.135186
0.151964
0.176794
0.202723
0.224834
0.243301
0.261321
0.282144
0.307666
0.338008
0.372115
0.40895
0.448126
0.489524
0.532364
0.574647
0.613495
0.646435
0.673499
0.697537
0.722578
0.750217
0.777766
0.807516
0.837266
0.864684
0.888468
0.908888
0.927227
0.944495
0.960678
0.974957
0.986279
0.994151
0.998708
0.999868
0.999989
0.999974
0.999969
0.99997
0.99998
0.999989
1
1
1
1
0.999998
0.999998
0.999999
0.999999
0.999999
1
1
1
1
1
0.999985
0.99996
0.999959
0.999959
0.999957
0.999959
0.999975
0.999998
1
1
1
0.999993
0.999971
0.99997
0.999969
0.999969
0.999969
0.999976
0.999998
1
1
0.999977
0.99996
0.999959
0.999959
0.999959
0.999959
0.999964
0.999996
1
1
0.999967
0.999942
0.999941
0.999941
0.99994
0.99994
0.99994
0.99994
0.999988
1
0.999965
0.999941
0.99994
0.99994
0.99994
0.99994
0.999941
0.999939
0.999939
0.999939
0.999939
0.999939
0.999939
0.999939
0.999944
0.999991
0.999997
0.999978
0.999973
0.999973
0.999973
0.999973
0.999973
0.999973
0.999973
0.999973
0.999973
0.999982
0.999999
1
1
1
1
1
0.999992
0.999983
0.999983
0.999983
0.999983
0.999983
0.999983
0.999983
0.999983
0.999983
0.999996
1
0.999998
0.999997
0.999997
0.999997
0.999997
1
1
1
0.999994
0.999988
0.999987
0.999987
0.999987
0.999987
0.999989
0.999998
1
1
1
1
0.999968
0.999951
0.999951
0.99995
0.99995
0.99995
0.99995
0.99995
0.999962
0.999997
1
1
0.999977
0.999955
0.999954
0.999954
0.999954
0.999954
0.999954
0.999957
0.999993
0.999999
1
1
1
1
1
1
1
4.12745e-92
5.17465e-90
2.82272e-88
7.80041e-86
6.62386e-83
-2.5193e-82
-7.42038e-82
-1.71061e-80
-5.54876e-80
1.07786e-79
-1.47042e-74
-9.8001e-74
-1.40351e-72
-1.57826e-71
-9.14987e-70
-1.8213e-67
-7.36117e-67
-2.62734e-67
-3.41834e-66
-4.86364e-69
-2.85814e-61
-7.4682e-61
-1.21679e-55
-1.58578e-53
-1.6425e-35
-9.37626e-34
-3.60497e-20
-2.09479e-18
-6.12522e-17
4.52674e-12
2.27022e-10
5.68804e-10
2.48014e-11
-2.74895e-09
1.41255e-07
6.69452e-07
2.09186e-06
2.3082e-06
2.29958e-06
2.26922e-06
2.02089e-06
1.79935e-06
1.22286e-06
6.67336e-07
1.1207e-06
3.22103e-06
3.1665e-06
3.57827e-08
7.42225e-06
1.28929e-05
3.33152e-06
2.24893e-07
2.23168e-07
2.2327e-07
2.23168e-07
2.23444e-07
2.24405e-07
2.31614e-07
2.4801e-07
2.68345e-07
2.57446e-07
2.41313e-07
2.2507e-07
2.15076e-07
2.10935e-07
2.08682e-07
1.98436e-07
1.82425e-07
1.64411e-07
1.44705e-07
1.22357e-07
9.86433e-08
7.14608e-08
4.22068e-08
2.39166e-08
1.74645e-08
1.53919e-08
1.48357e-08
1.48564e-08
0.00178356
0.0107777
0.0254471
0.0473947
0.0763901
0.107835
0.137175
0.165713
0.1995
0.244651
0.302833
0.369947
0.441079
0.514991
0.592293
0.67192
0.750106
0.81517
0.866922
0.911226
0.947038
0.973278
0.990031
0.998466
0.999696
0.999945
0.999964
0.99998
0.999988
0.999992
0.999996
0.999998
0.999999
0.999999
0.999999
0.999988
0.999976
0.999974
0.999974
0.999956
0.999957
0.999969
0.999995
0.999999
1
1
0.999999
0.999981
0.99997
0.99997
0.999969
0.999985
0.999999
1
1
1
1
1
1
1
1
1.00001
1.00001
1.00001
1.00001
1.00001
1.00001
1.00001
1.00001
1.00001
1.00001
1.00001
1.00001
1.00001
1.00001
1.00001
1.00001
1.00001
1.00001
1.00001
1.00001
1.00001
1.00001
1.00001
1.00001
1.00001
1.00001
1.00001
1.00001
1.00001
1.00001
1.00001
1.00001
1.00001
1.00001
1.00001
1.00001
1.00001
1.00002
1.00002
1.00002
1.00002
1.00002
1.00002
1.00002
1.00002
1.00002
1.00002
1.00002
1.00002
1.00002
1.00002
1.00002
1.00002
1.00002
1.00002
1.00002
1.00002
1.00002
1.00002
1.00002
1.00002
1.00002
1.00002
1.00002
1.00002
1.00002
1.00002
1.00002
1.00002
1.00002
1.00002
1.00002
1.00002
1.00002
1.00002
1.00002
1.00002
1.00002
1.00002
1.00002
1.00002
1.00002
1.00002
1.00002
1.00002
1.00002
1.00002
1.00002
1.00001
1.00001
1.00001
1.00001
1.00001
1.00001
1.00001
1.00001
1
1
1
0.999999
0.999977
0.999976
0.999977
0.999995
1
1
0.99999
0.999959
0.999958
0.999958
-2.10294e-96
-3.52956e-94
-1.73839e-91
-3.06232e-89
-3.23116e-85
-2.67473e-85
-2.50699e-84
-1.26476e-82
-6.78233e-81
-1.50611e-77
-2.8792e-84
-1.42941e-82
-7.03041e-81
-3.31577e-79
-3.40369e-68
-1.52127e-66
-2.88786e-65
-3.48409e-64
-3.03613e-63
-2.07261e-62
-4.37257e-62
-1.63199e-62
-2.65687e-57
-4.04606e-56
-1.92967e-36
-1.1836e-34
-4.73232e-21
-2.9295e-19
-9.54629e-18
-3.8668e-15
3.53912e-12
1.15932e-11
2.02347e-13
-5.61361e-10
6.98418e-09
9.6828e-09
3.87991e-08
9.94854e-08
2.91558e-07
4.35486e-07
3.3165e-07
6.94012e-08
8.53436e-07
8.10386e-07
1.32361e-07
3.91549e-08
2.62076e-08
2.07548e-08
1.38479e-07
2.77799e-07
1.90174e-06
2.35801e-06
2.31504e-06
1.24464e-06
2.23444e-07
2.08995e-07
4.22352e-06
6.87367e-06
7.0455e-06
7.10261e-06
7.11449e-06
7.10261e-06
7.10261e-06
3.64339e-06
2.15607e-07
2.12405e-07
2.20441e-06
4.2696e-06
4.17404e-06
3.96531e-06
4.11592e-06
4.12388e-06
4.12599e-06
4.12388e-06
3.18867e-06
2.74602e-07
2.55192e-08
3.14158e-08
2.62519e-08
1.38695e-08
1.63064e-08
1.21517e-08
8.7474e-09
6.27972e-09
5.1397e-09
4.61741e-09
4.39697e-09
4.33989e-09
4.34914e-09
4.33989e-09
4.34914e-09
4.44641e-09
4.60511e-09
4.46605e-09
4.38682e-09
3.78296e-09
0.0106825
0.0477219
0.116753
0.208124
0.31743
0.439171
0.5636
0.680686
0.781762
0.863486
0.932677
0.978054
0.994511
0.998542
0.99913
0.999043
0.999165
0.999535
0.999759
0.999857
0.999919
0.999956
0.999972
0.999985
0.999993
0.999996
0.999998
0.999999
0.999996
0.999986
0.999982
0.999992
0.999998
0.999998
0.999999
0.999999
0.999999
0.999999
0.999986
0.999957
0.999956
0.999956
0.999955
0.999955
0.999955
0.999955
0.999955
0.999956
0.999955
0.999955
0.999955
0.999955
0.999964
0.999994
1
1
0.999999
0.999999
1
1
1
0.999988
0.999978
0.999978
0.999977
0.999977
0.999977
0.999977
0.999977
0.999984
0.999998
1
1
1
0.999996
0.999975
0.999967
0.999967
0.999967
0.999966
0.999966
0.999966
0.999966
0.999967
0.999966
0.999966
0.999966
0.999966
0.999974
0.999996
0.999999
0.999995
0.999995
0.999995
0.999995
0.999998
1
1
1
1
1
1
1
1
1
1
1
1
1
1
1
1
1
1
1
1
1
1.00001
1.00001
1.00001
1.00001
1.00001
1.00001
1.00001
1.00001
1.00001
1.00001
1.00001
1.00001
1
1
1
1
1
1
1
1
1
1
1
1
1
1
0.999997
0.999979
0.999975
0.999975
0.999975
0.999975
0.999988
0.999999
0.999995
0.999989
0.999988
-2.14601e-86
-5.18663e-85
-6.06081e-84
-4.4077e-83
-2.19513e-82
-4.38158e-78
-7.82396e-76
-2.53963e-74
-4.4543e-73
-5.42225e-72
-5.15005e-71
-4.08111e-70
-2.80886e-69
-1.71807e-68
-2.12682e-66
-7.40755e-65
-1.3394e-63
-1.624e-62
-1.4788e-61
-1.07641e-60
-6.50147e-60
-3.33205e-59
-9.45468e-61
1.337e-67
-2.00703e-37
-1.30222e-35
-5.33018e-22
-3.44943e-20
-1.24148e-18
-5.87267e-15
1.10206e-14
8.56196e-14
-3.21652e-13
-2.25109e-10
-4.79154e-10
8.24058e-11
5.49293e-10
4.94686e-10
4.78197e-10
4.96147e-10
4.99691e-10
1.53362e-09
1.71098e-08
1.72189e-08
1.9297e-08
3.05933e-08
1.99882e-08
3.23151e-09
5.94878e-10
3.87064e-10
1.96589e-08
5.1085e-08
1.98126e-07
4.99067e-07
4.035e-07
1.66312e-07
2.25713e-07
3.02758e-07
5.26319e-07
9.01229e-07
7.86625e-07
3.58554e-07
3.61811e-07
1.75262e-06
2.62799e-06
2.74187e-06
2.83034e-06
2.37457e-06
8.66061e-07
1.69356e-07
3.6123e-07
4.30812e-07
2.54591e-07
2.02013e-07
7.31284e-07
9.75881e-07
9.93672e-07
1.0018e-06
1.00453e-06
1.0018e-06
1.00356e-06
8.18687e-07
2.1927e-07
7.94525e-09
6.24052e-09
4.6269e-09
3.68879e-09
3.49616e-09
4.34914e-09
5.93394e-09
1.25802e-08
1.26686e-08
1.25795e-08
9.72883e-09
3.79809e-09
3.28927e-09
3.18656e-09
2.80002e-09
3.16967e-09
3.36379e-09
3.82654e-09
5.20654e-09
1.16577e-08
4.02882e-08
0.0060758
0.0318816
0.132992
0.439431
0.690114
0.780105
0.856229
0.935598
0.97955
0.991553
0.994721
0.996798
0.998555
0.999394
0.999672
0.999812
0.999907
0.999963
0.999986
0.999994
0.999995
0.999996
0.999998
0.999999
0.999999
0.999999
0.999999
0.999999
0.999999
0.999999
0.999999
0.999998
0.999972
0.999956
0.999956
0.999956
0.999985
0.999997
0.999997
0.999996
0.999996
0.999996
0.999997
0.999998
0.999998
0.999998
0.999999
0.999999
0.999999
0.999999
0.999999
1
1
1
1
0.999999
0.999998
0.999997
0.999998
0.999999
1
1
1
0.999997
0.999983
0.999981
0.999979
0.99998
0.999992
0.999998
0.999994
0.999989
0.999992
0.999997
0.999999
0.999999
0.999999
0.999999
0.999999
0.999999
0.999999
1
1
1
1
1
1
1
1
1
1
1.00001
1.00001
1.00001
1.00001
1.00001
1.00001
1.00001
1.00001
1.00001
1.00001
1.00001
1.00001
1.00001
1.00001
1.00001
1.00001
1.00001
1.00001
1.00001
1.00001
1.00001
1.00001
1.00001
1.00001
1.00001
1.00001
1.00001
1.00001
1.00001
1.00001
1.00001
1.00001
1.00001
1.00001
1.00001
1.00001
1.00001
1.00001
1.00001
1.00001
1.00001
1.00001
1.00001
1.00001
1.00001
1.00001
1.00001
1
1
1
1
1
1
0.999999
0.99999
-1.27121e-87
-5.84764e-86
-1.48764e-81
-6.37453e-80
-1.38463e-78
-2.12183e-76
-7.78203e-75
-1.52064e-73
-2.0175e-72
-2.10669e-71
-1.92812e-70
-1.63612e-69
-1.28969e-68
-9.23662e-68
-5.30883e-65
-1.88871e-63
-3.40073e-62
-4.09885e-61
-3.71397e-60
-2.69539e-59
-1.63029e-58
-8.44366e-58
-5.10025e-73
0
-1.78736e-38
-1.00976e-36
-5.00136e-23
-3.33613e-21
-1.33103e-19
-9.3314e-17
1.01974e-15
4.0226e-15
4.44496e-15
-3.08996e-12
9.68896e-12
1.96774e-11
2.47628e-11
2.36671e-11
-2.55916e-11
2.42142e-11
2.3745e-11
2.33839e-11
2.69263e-11
3.0255e-11
6.64878e-11
3.12667e-10
5.0479e-10
7.33279e-10
4.76025e-10
5.27586e-11
2.84108e-11
3.59724e-11
5.72568e-11
9.88939e-10
2.97909e-09
4.96183e-10
5.48483e-11
4.32109e-11
3.58534e-11
2.92381e-11
4.34529e-10
1.51596e-09
4.05833e-09
5.05926e-09
7.61869e-09
1.69073e-08
3.25307e-08
5.81575e-08
8.02604e-08
6.31275e-08
4.09329e-08
2.85459e-08
2.05343e-08
6.66877e-09
3.57294e-09
3.05371e-08
9.60787e-08
6.95831e-08
1.01459e-08
4.19772e-07
9.90912e-07
8.37964e-07
3.02689e-07
2.5682e-08
4.5726e-09
3.32984e-09
2.37027e-09
2.69189e-09
4.0562e-09
5.60029e-09
4.41946e-09
2.91755e-09
3.17314e-09
5.72002e-09
5.54408e-09
5.36236e-09
4.4859e-09
2.61374e-09
3.20005e-09
5.16981e-09
1.13239e-08
2.82517e-08
6.25595e-07
5.89178e-07
1.18082e-06
1.68719e-06
1.7053e-06
2.53347e-06
0.000500658
0.0163514
0.0544139
0.227746
0.67234
0.877999
0.930038
0.971205
0.990817
0.995587
0.997581
0.999028
0.999618
0.999826
0.999928
0.999975
0.999979
0.999976
0.999978
0.999996
0.999999
0.999999
0.999999
0.99999
0.999979
0.999978
0.999978
0.999974
0.999974
0.999989
0.999996
0.999997
0.999997
0.999997
0.999997
0.999997
0.999997
0.999996
0.999997
0.999975
0.999952
0.999952
0.999952
0.999965
0.999956
0.999956
0.999956
0.999956
0.999964
0.999993
1
1
1
1
1
0.999999
0.999998
0.999986
0.999982
0.999981
0.999981
0.999981
0.999981
0.999994
0.999998
0.999998
0.999998
0.999998
0.999998
0.999998
0.999997
0.999996
0.999978
0.999972
0.999973
0.999974
0.999973
0.999973
0.999973
0.999973
0.999973
0.999979
0.999996
1
1
1
1
1
1
1
1
1
1
1
1
1
1.00001
1.00001
1.00001
1.00001
1.00001
1.00001
1.00001
1.00001
1.00001
1.00001
1.00001
1.00001
1.00001
1.00001
1.00001
1.00001
1.00001
1.00001
1.00001
1.00001
1.00001
1.00001
1.00001
1.00001
1.00001
1.00001
1.00001
1.00001
1.00001
1.00001
1.00001
1.00001
1.00001
1.00001
1.00001
1.00001
1.00001
1
1
1
1
1
1
1
1
0.999999
-3.17094e-89
-1.5525e-83
-1.2837e-80
-4.9094e-79
-2.44123e-77
-9.45452e-76
-2.20127e-74
-3.44619e-73
-4.0011e-72
-6.60001e-71
-1.32447e-69
-2.06005e-68
-2.36754e-67
-2.11086e-66
-6.08021e-64
-2.11764e-62
-3.77145e-61
-4.5063e-60
-4.05457e-59
-2.92775e-58
-1.76631e-57
-9.15327e-57
-4.10519e-56
0
-1.33368e-39
9.31167e-37
-3.8522e-24
-2.62206e-22
-1.17223e-20
-1.71445e-18
2.82762e-17
1.19161e-16
2.19386e-16
4.32921e-15
3.37591e-13
8.73285e-13
1.52216e-12
1.87502e-12
2.03754e-12
2.22784e-12
2.4233e-12
2.46401e-12
1.78036e-12
1.58721e-12
1.28021e-12
1.36842e-12
2.95208e-12
2.44163e-11
4.07197e-11
4.05634e-11
1.48613e-11
2.07047e-12
-1.38898e-13
-2.41133e-12
-4.15127e-12
-5.19597e-12
-6.18025e-12
-1.16044e-12
-7.16755e-13
-9.10309e-13
-7.13849e-13
-1.06263e-13
4.2203e-13
1.34905e-12
1.15144e-12
8.69133e-13
5.67026e-13
3.63448e-13
1.98471e-11
2.17056e-11
3.37165e-11
4.97508e-11
6.0163e-11
1.85693e-11
5.15974e-12
4.72317e-12
6.19456e-12
1.02722e-11
5.8807e-10
4.01937e-09
7.44863e-09
1.30441e-08
1.10682e-08
8.16158e-09
4.31081e-09
2.78446e-09
2.05371e-09
1.45328e-09
1.00667e-09
7.21915e-10
5.5716e-10
4.39041e-10
4.35678e-10
5.55161e-10
7.47549e-10
1.51094e-09
1.6259e-09
1.67097e-09
2.17079e-09
5.21554e-09
1.46827e-08
4.11536e-08
1.62636e-07
2.99434e-07
8.14958e-07
2.23271e-06
1.09945e-05
4.48771e-05
0.000167826
0.000963756
0.0029375
0.00804708
0.0222714
0.0612891
0.232561
0.700271
0.946058
0.975653
0.991016
0.997104
0.99845
0.999276
0.999742
0.999818
0.999655
0.999749
0.999957
0.99999
0.999996
0.999996
0.999996
0.999994
0.999995
0.999996
0.999996
0.999996
0.999994
0.999987
0.999985
0.999964
0.999962
0.999965
0.999969
0.999965
0.999965
0.999965
0.999965
0.999965
0.999975
0.999994
0.999998
0.999998
0.999999
0.999999
0.999999
0.999999
1
1
1
1
1
1
1
1
0.999999
0.999994
0.999995
0.999998
0.999998
0.999998
0.999998
0.999998
0.999998
0.999998
0.999998
0.999998
0.999998
0.999989
0.999976
0.999975
0.999974
0.999973
0.999977
0.999991
0.999998
0.999999
0.999999
1
1
1
1
1
1
1
1
1
1
1
1
1
1
1
1
1
1
1.00001
1.00001
1.00001
1.00001
1.00001
1.00001
1.00001
1.00001
1.00001
1.00001
1.00001
1.00001
1.00001
1.00001
1.00001
1.00001
1.00001
1.00001
1.00001
1.00001
1.00001
1.00001
1.00001
1.00001
1.00001
1.00001
1.00001
1.00001
1.00001
1.00001
1.00001
1.00001
1.00001
1.00001
1.00001
1.00001
1.00001
1.00001
1.00001
1.00001
1.00001
1.00001
1
1
1
-2.18973e-87
-7.1752e-83
-3.46616e-80
-1.31108e-78
-9.97723e-76
-3.79031e-74
-7.3188e-73
-9.4898e-72
-9.28523e-71
-1.52717e-69
-3.29503e-68
-5.2735e-67
-6.09697e-66
-5.42173e-65
-1.00597e-63
-2.52431e-62
-4.39489e-61
-5.39505e-60
-5.0461e-59
-3.80251e-58
-2.39843e-57
-1.30107e-56
-6.18901e-56
-1.84483e-55
-8.0836e-41
3.60118e-37
-2.37666e-25
-1.64007e-23
-8.35665e-22
-3.7673e-20
5.90888e-19
2.62304e-18
1.75068e-18
2.194e-16
6.88997e-15
1.55065e-14
2.30216e-14
6.80189e-14
1.47004e-13
2.67493e-13
4.1883e-13
5.43843e-13
5.29458e-13
3.67671e-13
3.56469e-13
4.16403e-13
6.68994e-13
9.52806e-13
1.58284e-12
2.99902e-12
2.82784e-12
2.62009e-12
1.44459e-12
1.00496e-13
1.63006e-13
4.69141e-13
9.91528e-13
1.1697e-12
1.17155e-12
1.03548e-12
1.01262e-12
1.12952e-12
1.32419e-12
1.29976e-12
1.22833e-12
9.893e-13
5.81807e-13
1.7389e-13
1.62026e-13
2.4818e-13
3.82298e-13
6.45847e-13
1.24329e-12
3.11947e-12
3.83135e-12
-2.59732e-13
-1.19117e-12
9.38825e-13
9.94423e-13
9.94798e-13
1.15201e-12
3.38108e-11
4.89512e-11
3.89717e-12
2.79562e-12
4.47617e-12
8.93189e-12
1.34341e-11
2.1073e-11
3.02162e-11
4.28754e-11
6.19543e-11
8.96337e-11
1.28062e-10
1.87727e-10
2.88719e-10
4.43907e-10
6.19925e-10
8.84057e-10
1.99311e-09
5.02592e-09
1.42358e-08
3.86908e-08
1.16501e-07
3.37542e-07
1.03913e-06
3.40181e-06
1.26388e-05
4.5839e-05
0.000156883
0.000449727
0.00134001
0.00403602
0.0114317
0.0316852
0.0723171
0.250674
0.715688
0.974387
0.988423
0.993331
0.996739
0.998475
0.999217
0.999495
0.999695
0.999861
0.999942
0.999974
0.999988
0.999991
0.999993
0.999995
0.999995
0.999996
0.999996
0.999994
0.999989
0.999993
0.999997
0.999997
0.999997
0.999997
0.999996
0.999995
0.999988
0.999989
0.999992
0.999992
0.999991
0.999966
0.999956
0.999957
0.999957
0.999956
0.999956
0.999956
0.999956
0.999956
0.999956
0.999974
0.999999
1
0.999999
0.999998
0.999997
0.999997
0.999997
0.999983
0.999983
0.999983
0.999982
0.999982
0.999982
0.999982
0.999982
0.999985
0.999996
0.999995
0.999995
0.999996
0.999996
0.999997
0.999992
0.999975
0.999974
0.999973
0.999973
0.999974
0.999974
0.999973
0.999973
0.999973
0.999974
0.999993
1
1
1
1
1
1
1
1
1
1
1
1
1
1
1.00001
1.00001
1.00001
1.00001
1.00001
1.00001
1.00001
1.00001
1.00001
1.00001
1.00001
1.00001
1.00001
1.00001
1.00001
1.00001
1.00001
1.00001
1.00001
1.00001
1.00001
1.00001
1.00001
1.00001
1.00001
1.00001
1.00001
1.00001
1.00001
1.00001
1.00001
1.00001
1.00001
1
1
1
1
1
1
1
1
-7.17331e-85
-3.0289e-80
-7.93345e-78
-2.87774e-76
-5.93072e-75
-8.90425e-74
-1.06825e-72
-1.06074e-71
-8.33019e-71
-8.6642e-70
-1.6517e-68
-2.82174e-67
-3.51238e-66
-3.26198e-65
-4.71183e-64
-1.07099e-62
-1.91762e-61
-2.47685e-60
-2.44448e-59
-1.94261e-58
-1.29091e-57
-7.37107e-57
-3.68972e-56
-1.60134e-55
-3.79546e-42
3.94736e-38
-1.12485e-26
-7.838e-25
-4.65237e-23
-5.43776e-22
8.13977e-21
3.99451e-20
9.29478e-20
5.47169e-18
9.8229e-17
2.44765e-16
5.55221e-16
9.63348e-16
1.39902e-15
4.21798e-15
8.34874e-15
1.29963e-14
1.46307e-14
1.52453e-14
1.63457e-14
1.84115e-14
1.74449e-14
1.45391e-14
1.00879e-14
1.18608e-14
5.38505e-14
8.95186e-14
8.28943e-14
7.83498e-14
7.45437e-14
7.05607e-14
6.85367e-14
6.53176e-14
5.91107e-14
5.11087e-14
4.69533e-14
4.91191e-14
5.38113e-14
5.80516e-14
6.49557e-14
7.29901e-14
8.43114e-14
1.03803e-13
1.34008e-13
1.7698e-13
2.34342e-13
3.0381e-13
3.77581e-13
4.73828e-13
5.84008e-13
7.06405e-13
7.99102e-13
8.78174e-13
9.11563e-13
8.78189e-13
8.32561e-13
1.30335e-12
1.79854e-12
2.26023e-12
3.05807e-12
4.33822e-12
6.39836e-12
9.62415e-12
1.45427e-11
2.18603e-11
3.24907e-11
4.7606e-11
6.87511e-11
9.80325e-11
1.3795e-10
1.95351e-10
2.76016e-10
3.77055e-10
5.04011e-10
8.44885e-10
1.80349e-09
4.57897e-09
1.11165e-08
3.59269e-08
9.64133e-08
3.3789e-07
9.88614e-07
3.40163e-06
1.05354e-05
3.4625e-05
0.000103226
0.000322139
0.000957997
0.00290095
0.00842792
0.0246242
0.0656018
0.177914
0.535898
0.955383
0.978468
0.987692
0.994017
0.997047
0.998496
0.99923
0.999617
0.999815
0.99991
0.999954
0.999975
0.999986
0.999992
0.999994
0.999993
0.99999
0.999991
0.999996
0.999997
0.999997
0.999997
0.999997
0.999997
0.999992
0.99996
0.999949
0.999947
0.999946
0.999946
0.999946
0.999946
0.999954
0.999986
0.999985
0.999983
0.999972
0.999977
0.999991
0.999996
0.999997
0.999998
0.999999
0.999998
0.999993
0.999988
0.999987
0.999987
0.999986
0.999985
0.999995
0.999996
0.999997
0.999997
0.999997
0.999997
0.999997
0.999997
0.999997
0.99999
0.999989
0.99999
0.999995
0.999998
0.999985
0.999976
0.999975
0.999974
0.999974
0.99999
0.999997
0.999998
0.999999
0.999999
0.999999
1
1
1
1
1
1
1
1
1
1
1
1
1
1.00001
1.00001
1.00001
1.00001
1.00001
1.00001
1.00001
1.00001
1.00001
1.00001
1.00001
1.00001
1.00001
1.00001
1.00001
1.00001
1.00001
1.00001
1.00001
1.00001
1.00001
1.00001
1.00001
1.00001
1.00001
1.00001
1.00001
1.00001
1.00001
1.00001
1.00001
1.00001
1.00001
1.00001
1.00001
1.00001
1.00001
1.00001
1.00001
1.00001
1.00001
1.00001
1
-3.30765e-83
-3.17997e-79
-4.36981e-77
-1.49007e-75
-2.82285e-74
-3.69389e-73
-3.68789e-72
-2.95543e-71
-1.9469e-70
-1.11904e-69
-7.17611e-69
-6.6999e-68
-7.08997e-67
-6.35755e-66
-8.14761e-65
-1.81759e-63
-3.44456e-62
-4.74264e-61
-4.96304e-60
-4.15406e-59
-2.89036e-58
-1.71837e-57
-8.91234e-57
1.92538e-54
-1.2733e-43
1.22329e-38
-3.77727e-28
-2.65076e-26
-1.87909e-24
-4.23197e-24
6.09342e-23
3.52037e-22
8.90379e-22
9.14294e-20
8.26043e-19
2.25791e-18
4.85308e-18
8.16508e-18
7.0134e-18
1.27434e-17
2.54645e-17
5.27349e-17
8.85471e-17
1.29328e-16
1.57654e-16
1.80556e-16
1.91276e-16
1.94139e-16
1.34442e-16
3.43273e-17
4.15322e-17
9.29514e-17
3.22204e-16
1.28703e-15
1.47209e-15
1.45832e-15
1.4983e-15
1.47909e-15
1.43026e-15
1.28966e-15
1.07323e-15
8.31724e-16
6.79638e-16
7.06479e-16
8.62934e-16
1.07945e-15
1.76444e-15
2.95223e-15
4.26022e-15
5.60065e-15
6.9821e-15
8.36875e-15
9.36982e-15
9.98852e-15
1.37373e-14
2.38627e-14
3.89879e-14
6.30265e-14
1.01404e-13
1.65537e-13
2.75857e-13
4.62962e-13
7.76866e-13
1.29306e-12
2.12878e-12
3.45604e-12
5.52181e-12
8.67278e-12
1.33863e-11
2.0307e-11
3.02887e-11
4.44384e-11
6.41952e-11
9.1377e-11
1.28407e-10
1.79013e-10
2.48538e-10
3.40116e-10
4.50458e-10
5.87995e-10
9.60091e-10
1.97729e-09
4.94153e-09
1.22185e-08
3.87571e-08
1.08497e-07
3.80415e-07
1.09586e-06
3.90787e-06
1.14146e-05
3.75849e-05
0.000112742
0.000346143
0.0010698
0.00322718
0.00978379
0.028031
0.077607
0.228349
0.654001
0.937978
0.967989
0.984261
0.992113
0.996023
0.997992
0.998993
0.999497
0.999745
0.999869
0.999934
0.999966
0.999981
0.999989
0.999975
0.999961
0.999961
0.999961
0.999961
0.999986
0.999997
0.999997
0.999997
0.999996
0.999984
0.999951
0.999984
0.999985
0.999986
0.999986
0.999986
0.999986
0.999986
0.999986
0.999966
0.999968
0.999972
0.99998
0.999994
0.999996
0.999997
0.999997
0.999997
0.999998
0.999998
0.999998
0.999998
0.999996
0.999985
0.999984
0.999984
0.999983
0.999995
0.999997
0.999997
0.999997
0.999988
0.999983
0.999991
0.999997
0.999997
0.999998
0.999998
0.999998
0.999998
0.999995
0.999979
0.999977
0.99998
0.999979
0.999979
0.999979
0.999981
0.999994
1
0.999999
0.999999
1
1
1
1
1
1
1
1
1
1
1
1.00001
1.00001
1.00001
1.00001
1.00001
1.00001
1.00001
1.00001
1.00001
1.00001
1.00001
1.00001
1.00001
1.00001
1.00001
1.00001
1.00001
1.00001
1.00001
1.00001
1.00001
1.00001
1.00001
1.00001
1.00001
1.00001
1.00001
1.00001
1.00001
1.00001
1.00001
1.00001
1.00001
1.00001
1.00001
1.00001
1.00001
1.00001
1.00001
1.00001
1
1
-5.86386e-81
-2.55461e-78
-3.91691e-76
-1.36494e-74
-2.60558e-73
-2.17407e-71
-7.14033e-70
-1.23841e-68
-1.41352e-67
-1.18829e-66
-7.86188e-66
-4.27279e-65
-1.96209e-64
-7.75233e-64
-2.66424e-63
-8.06788e-63
-2.28968e-62
-7.76892e-62
-4.229e-61
-2.97606e-60
-1.97477e-59
-1.13603e-58
-1.24721e-58
6.96021e-54
-2.57557e-45
1.99516e-39
-7.60949e-30
-5.36919e-28
-4.66863e-26
-3.447e-26
-3.17751e-26
-9.63539e-25
5.69117e-24
1.33814e-22
2.14022e-21
-1.45296e-21
-2.75714e-20
6.00892e-20
9.03057e-20
1.16495e-19
1.73788e-19
3.71393e-19
5.41469e-19
7.55624e-19
1.11138e-18
1.4138e-18
1.768e-18
1.9966e-18
1.96164e-18
1.62471e-18
4.24938e-19
2.65187e-19
2.69487e-19
3.14012e-19
4.5631e-19
1.33671e-18
3.86171e-18
6.44491e-18
8.73758e-18
1.00883e-17
1.05289e-17
1.01951e-17
8.74858e-18
7.08881e-18
7.3178e-18
8.91233e-18
1.24927e-17
2.64057e-17
5.24324e-17
1.18318e-16
2.67355e-16
5.86402e-16
1.25128e-15
2.60458e-15
5.2954e-15
1.05359e-14
2.05415e-14
3.92482e-14
7.34898e-14
1.34862e-13
2.42638e-13
4.28134e-13
7.41073e-13
1.25856e-12
2.09726e-12
3.42911e-12
5.50091e-12
8.65755e-12
1.33684e-11
2.02571e-11
3.01395e-11
4.4071e-11
6.34072e-11
8.98853e-11
1.25864e-10
1.74487e-10
2.40378e-10
3.30745e-10
4.4821e-10
5.78695e-10
7.87659e-10
1.35077e-09
2.93824e-09
6.43301e-09
2.04477e-08
4.84666e-08
1.96568e-07
5.01784e-07
2.00153e-06
5.52928e-06
2.1213e-05
6.08086e-05
0.000204254
0.000582926
0.00176617
0.00505103
0.0147284
0.0420821
0.119468
0.427697
0.900505
0.949271
0.972734
0.985399
0.992214
0.995865
0.997822
0.998871
0.999415
0.999697
0.999845
0.999919
0.999957
0.999975
0.999985
0.999992
0.999994
0.999996
0.999996
0.999997
0.999997
0.999997
0.999997
0.999995
0.999988
0.999944
0.999933
0.999938
0.999947
0.999941
0.999941
0.999941
0.999941
0.999941
0.999963
0.999976
0.999978
0.999981
0.999975
0.999975
0.999975
0.999975
0.999992
0.999997
0.999998
0.999998
0.999997
0.99999
0.999984
0.999984
0.999983
0.999983
0.999983
0.999983
0.999983
0.999983
0.999983
0.999983
0.999983
0.999988
0.999998
0.999998
0.999998
0.999998
0.999998
0.999998
0.999996
0.999985
0.999976
0.999979
0.999979
0.999979
0.999978
0.999978
0.999978
0.999978
0.999981
0.999995
1
1
1
1
1
1
1
1
1
1
1
1.00001
1.00001
1.00001
1.00001
1.00001
1.00001
1.00001
1.00001
1.00001
1.00001
1.00001
1.00001
1.00001
1.00001
1.00001
1.00001
1.00001
1.00001
1.00001
1.00001
1.00001
1.00001
1.00001
1.00001
1.00001
1.00001
1.00001
1.00001
1.00001
1.00001
1.00001
1.00001
1.00001
1.00001
1.00001
1.00001
1.00001
1.00001
1.00001
1
1
-4.41437e-82
-9.96001e-78
-6.56671e-76
-1.65138e-74
-1.66524e-73
-1.05835e-72
-9.07273e-72
-6.50004e-71
-4.98988e-70
-1.62806e-69
-6.42178e-68
-4.29741e-67
-9.92817e-67
-2.06643e-69
-3.80103e-71
-1.28566e-68
-4.04151e-66
-4.24621e-69
-1.08408e-57
-4.23322e-68
-5.34781e-59
-9.60561e-64
-1.1652e-61
-1.86944e-46
-2.00983e-57
0
-5.07659e-32
-3.59708e-30
-4.43454e-28
-1.56038e-27
9.95425e-27
4.25659e-25
2.92313e-24
2.89803e-24
6.00366e-22
5.14997e-21
1.91419e-20
4.29464e-20
6.83886e-20
9.24159e-20
1.16964e-19
1.40823e-19
1.63164e-19
1.83289e-19
2.01009e-19
2.1659e-19
2.3005e-19
2.40962e-19
2.49249e-19
2.55253e-19
2.5918e-19
2.62051e-19
2.65205e-19
2.69489e-19
2.75505e-19
2.82784e-19
2.90636e-19
2.99061e-19
3.08062e-19
3.1723e-19
3.35306e-19
3.84407e-19
5.23438e-19
9.58509e-19
2.03674e-18
4.63185e-18
1.07005e-17
2.45986e-17
5.58366e-17
1.24694e-16
2.73494e-16
5.88654e-16
1.24271e-15
2.57235e-15
5.21977e-15
1.03818e-14
2.02377e-14
3.86639e-14
7.23978e-14
1.32879e-13
2.39087e-13
4.21774e-13
7.296e-13
1.23771e-12
2.05933e-12
3.36076e-12
5.38032e-12
8.45125e-12
1.30289e-11
1.97222e-11
2.93318e-11
4.29001e-11
6.17755e-11
8.77232e-11
1.23115e-10
1.71378e-10
2.37093e-10
3.26587e-10
4.43781e-10
5.81332e-10
7.58326e-10
1.26449e-09
2.48217e-09
6.18079e-09
1.32741e-08
5.02622e-08
1.22499e-07
5.0708e-07
1.26572e-06
5.1298e-06
1.38721e-05
5.39166e-05
0.000157189