/*--------------------------------*- C++ -*----------------------------------*\
| =========                 |                                                 |
| \\      /  F ield         | OpenFOAM: The Open Source CFD Toolbox           |
|  \\    /   O peration     | Version:  2406                                  |
|   \\  /    A nd           | Website:  www.openfoam.com                      |
|    \\/     M anipulation  |                                                 |
\*---------------------------------------------------------------------------*/
FoamFile
{
    version     2.0;
    format      ascii;
    arch        "LSB;label=32;scalar=64";
    class       surfaceScalarField;
    location    "0.15";
    object      alphaPhi0.glycerin;
}
// * * * * * * * * * * * * * * * * * * * * * * * * * * * * * * * * * * * * * //

dimensions      [0 3 -1 0 0 0 0];

oriented        oriented;

internalField   nonuniform List<scalar> 
12225
(
4.34361e-92
1.96706e-94
4.85065e-91
9.14203e-93
9.41156e-89
1.96177e-90
9.4167e-87
1.76999e-88
6.93838e-85
1.32373e-86
4.28241e-83
9.16772e-85
2.3957e-81
5.57263e-83
1.21959e-79
2.93493e-81
5.51291e-78
1.35003e-79
2.17513e-76
5.4506e-78
7.44146e-75
1.91726e-76
2.20193e-73
5.82844e-75
5.63009e-72
1.53018e-73
1.24218e-70
3.47778e-72
2.35755e-69
6.8434e-71
3.86629e-68
1.17296e-69
5.5592e-67
1.7803e-68
6.97034e-66
2.39086e-67
7.24295e-65
2.69775e-66
6.88254e-64
2.7553e-65
1.12706e-62
4.87201e-64
2.38232e-61
1.13113e-62
4.93723e-55
5.28101e-56
1.76206e-51
2.22115e-52
-1.80493e-39
-2.75526e-40
-6.23507e-38
-1.19487e-38
-1.46207e-24
-3.72933e-25
-3.92866e-23
-1.5065e-23
-3.09293e-22
-2.44318e-22
-5.39232e-24
-1.14665e-21
1.70054e-09
-3.22103e-16
2.72139e-09
-8.63664e-17
3.30434e-09
-6.68651e-17
3.13679e-09
2.24019e-10
2.74315e-09
3.55618e-10
2.10665e-09
6.18757e-10
1.62568e-09
4.74456e-10
1.38773e-09
2.3274e-10
1.35868e-09
2.34891e-11
1.39641e-09
-3.34623e-11
1.39659e-09
6.6842e-13
1.33102e-09
5.53224e-11
1.23323e-09
8.20731e-11
1.14113e-09
7.72286e-11
1.07364e-09
5.68805e-11
1.03258e-09
3.49893e-11
1.01015e-09
1.9449e-11
9.96028e-10
1.24631e-11
9.80757e-10
1.36488e-11
9.69371e-10
1.039e-11
9.52803e-10
1.55008e-11
9.76204e-10
-2.42367e-11
1.11617e-09
-1.44811e-10
1.35268e-09
-2.40605e-10
1.59187e-09
-2.4259e-10
1.77645e-09
-1.87341e-10
1.91113e-09
-1.36813e-10
2.02343e-09
-1.13822e-10
2.14733e-09
-1.24908e-10
2.31818e-09
-1.71462e-10
2.55901e-09
-2.41091e-10
2.86789e-09
-3.08684e-10
3.2243e-09
-3.55818e-10
3.60706e-09
-3.81854e-10
4.00713e-09
-3.98924e-10
4.4288e-09
-4.2036e-10
4.88359e-09
-4.53425e-10
5.3834e-09
-4.98417e-10
5.9367e-09
-5.51917e-10
6.54922e-09
-6.11141e-10
7.22662e-09
-6.75977e-10
7.9753e-09
-7.4721e-10
8.7999e-09
-8.23049e-10
9.69901e-09
-8.97437e-10
1.06622e-08
-9.61444e-10
1.16718e-08
-1.00786e-09
1.27096e-08
-1.03611e-09
1.37664e-08
-1.05517e-09
1.48494e-08
-1.08139e-09
1.5975e-08
-1.12399e-09
1.71586e-08
-1.18199e-09
1.84137e-08
-1.25353e-09
1.97489e-08
-1.33766e-09
2.1167e-08
-1.41814e-09
2.26489e-08
-1.48128e-09
2.41668e-08
-1.51779e-09
2.57007e-08
-1.53364e-09
2.72424e-08
-1.54148e-09
2.87917e-08
-1.54913e-09
3.03461e-08
-1.55433e-09
3.18945e-08
-1.54812e-09
3.34207e-08
-1.52603e-09
3.49132e-08
-1.4925e-09
3.6375e-08
-1.46188e-09
3.78256e-08
-1.45067e-09
3.92868e-08
-1.46226e-09
4.07701e-08
-1.48366e-09
4.22696e-08
-1.49808e-09
4.37658e-08
-1.49603e-09
4.52427e-08
-1.47654e-09
4.6688e-08
-1.4453e-09
4.81004e-08
-1.41243e-09
4.94886e-08
-1.38801e-09
5.08652e-08
-1.37834e-09
5.22486e-08
-1.38365e-09
5.36493e-08
-1.40055e-09
5.5071e-08
-1.42161e-09
5.6508e-08
-1.43692e-09
5.79469e-08
-1.43878e-09
5.93754e-08
-1.42626e-09
6.0779e-08
-1.40303e-09
6.21507e-08
-1.37163e-09
6.34828e-08
-1.33208e-09
6.47667e-08
-1.28379e-09
6.59938e-08
-1.22727e-09
6.71544e-08
-1.16364e-09
6.82485e-08
-1.09455e-09
6.927e-08
-1.02193e-09
7.0217e-08
-9.47429e-10
7.10894e-08
-8.72645e-10
7.18885e-08
-7.98989e-10
7.26164e-08
-7.27682e-10
7.32759e-08
-6.59418e-10
7.38743e-08
-5.94879e-10
7.44082e-08
-5.34683e-10
7.48863e-08
-4.78939e-10
7.53134e-08
-4.27373e-10
7.56944e-08
-3.80331e-10
7.60312e-08
-3.3766e-10
7.63278e-08
-2.99049e-10
7.65923e-08
-2.64135e-10
7.68254e-08
-2.32812e-10
7.70306e-08
-2.0495e-10
7.72109e-08
-1.80234e-10
7.73692e-08
-1.58243e-10
7.75077e-08
-1.38569e-10
7.76318e-08
-1.21324e-10
7.77386e-08
-1.06051e-10
7.78315e-08
-9.2738e-11
7.79127e-08
-8.10608e-11
7.79826e-08
-7.08969e-11
7.80435e-08
-6.19405e-11
7.80974e-08
-5.40488e-11
7.81445e-08
-4.71714e-11
7.81856e-08
-4.12041e-11
7.82216e-08
-3.58574e-11
7.82529e-08
-3.12137e-11
7.828e-08
-2.71476e-11
7.83035e-08
-2.36027e-11
7.83238e-08
-2.04763e-11
7.83425e-08
-1.77162e-11
7.83581e-08
-1.53546e-11
7.83714e-08
-1.34071e-11
7.83832e-08
-1.1771e-11
7.83939e-08
-1.02262e-11
7.84029e-08
-8.97394e-12
7.84097e-08
-7.84519e-12
7.84165e-08
-6.82476e-12
7.84225e-08
-5.91231e-12
7.84277e-08
-5.10161e-12
7.84321e-08
-4.39426e-12
7.84359e-08
-3.77582e-12
7.84391e-08
-3.2478e-12
7.84419e-08
-2.73877e-12
7.84458e-08
-2.27966e-12
7.8448e-08
-1.91668e-12
7.84498e-08
-1.64796e-12
7.84514e-08
-1.42055e-12
7.84528e-08
-1.23761e-12
7.8454e-08
-1.13874e-12
7.84552e-08
-1.08294e-12
7.84562e-08
-1.00065e-12
7.84571e-08
-8.93153e-13
7.84578e-08
-7.78528e-13
7.84583e-08
-6.99175e-13
7.8459e-08
-6.24358e-13
7.84597e-08
-5.47038e-13
7.84604e-08
-4.68507e-13
7.84609e-08
-4.15747e-13
7.84604e-08
-4.12873e-13
7.84603e-08
-3.34353e-13
7.84605e-08
-2.3248e-13
7.84606e-08
-2.23629e-13
7.84618e-08
-1.15208e-13
7.8462e-08
-1.98621e-13
7.84601e-08
-4.03004e-13
7.84605e-08
-4.43035e-13
7.84608e-08
-3.86306e-13
7.84611e-08
-3.27019e-13
7.84613e-08
-2.78738e-13
7.84615e-08
-2.5298e-13
7.84618e-08
-2.14468e-13
7.84619e-08
-1.549e-13
7.8462e-08
-7.31701e-14
7.8462e-08
2.81994e-14
7.84619e-08
1.30209e-13
7.84616e-08
2.94993e-13
7.84637e-08
4.72271e-13
7.84632e-08
4.61019e-13
7.84629e-08
3.70124e-13
7.84611e-08
2.67281e-13
7.84607e-08
2.55543e-13
7.84605e-08
3.01209e-13
7.84602e-08
3.18799e-13
7.84599e-08
2.94286e-13
7.84596e-08
2.88091e-13
7.84607e-08
2.91577e-13
7.84606e-08
2.50829e-13
7.84604e-08
1.56407e-13
7.84603e-08
1.28279e-13
7.84602e-08
1.42378e-13
7.84601e-08
1.65486e-13
7.84599e-08
1.97563e-13
7.84596e-08
2.37518e-13
7.84593e-08
2.9444e-13
7.8459e-08
3.569e-13
7.84586e-08
4.22318e-13
7.84581e-08
4.87304e-13
7.84575e-08
5.56204e-13
7.84569e-08
6.12984e-13
7.84562e-08
6.49553e-13
7.84555e-08
6.65364e-13
7.84546e-08
7.92388e-13
7.84534e-08
1.08069e-12
7.84521e-08
1.24699e-12
7.84506e-08
1.4045e-12
7.84485e-08
1.61699e-12
7.84466e-08
1.91175e-12
7.84445e-08
2.2542e-12
7.8442e-08
2.67491e-12
7.84388e-08
3.18107e-12
7.8435e-08
3.8774e-12
7.84303e-08
4.69448e-12
7.84246e-08
5.73088e-12
7.84178e-08
6.93201e-12
7.84093e-08
8.49361e-12
7.83989e-08
1.04812e-11
7.8386e-08
1.29522e-11
7.837e-08
1.60235e-11
7.83501e-08
1.98697e-11
7.83253e-08
2.46922e-11
7.82944e-08
3.07548e-11
7.82559e-08
3.84022e-11
7.82077e-08
4.80279e-11
7.81475e-08
6.00424e-11
7.80726e-08
7.47606e-11
7.798e-08
9.25651e-11
7.78668e-08
1.13136e-10
7.77328e-08
1.33933e-10
1.41848e-10
1.04399e-92
1.51611e-96
8.78654e-92
8.44609e-95
1.60143e-89
2.587e-92
1.13099e-87
1.85286e-90
7.00314e-86
2.95579e-88
4.19456e-84
7.72225e-87
2.24747e-82
1.16582e-84
1.05489e-80
7.4621e-83
4.38988e-79
3.57319e-81
1.62267e-77
1.43939e-79
5.28084e-76
4.91381e-78
1.50107e-74
1.47387e-76
3.71658e-73
3.82491e-75
8.0282e-72
8.62795e-74
1.51071e-70
1.79618e-72
2.48761e-69
3.17621e-71
3.65005e-68
4.98465e-70
4.7585e-67
6.99224e-69
5.26631e-66
8.25316e-68
5.25504e-65
1.02326e-66
8.56168e-64
2.06337e-65
1.8892e-62
5.58118e-64
6.32159e-56
2.2056e-57
3.50008e-52
1.46538e-53
-3.71013e-40
-4.95785e-41
-1.55297e-38
-2.57561e-39
-4.41641e-25
-9.60428e-26
-1.63713e-23
-5.0988e-24
-2.40918e-22
-1.27609e-22
2.24778e-16
2.8817e-16
6.14608e-18
-1.60619e-17
1.70034e-18
-1.62818e-18
2.4674e-18
-4.92044e-19
7.84856e-11
1.47786e-12
1.53137e-10
6.20445e-13
2.27216e-10
-1.14069e-12
3.45255e-10
2.69004e-13
6.60067e-10
-2.1736e-13
1.02967e-09
-1.62706e-15
1.2801e-09
-4.10063e-16
1.372e-09
-2.30513e-16
1.33836e-09
1.41966e-11
1.25197e-09
3.41078e-11
1.15434e-09
4.13094e-11
1.0789e-09
4.00168e-11
1.04554e-09
3.16522e-11
1.06471e-09
1.87681e-11
1.14574e-09
8.09869e-13
1.27404e-09
-4.81294e-16
1.513e-09
-2.96942e-15
1.70787e-09
-3.39272e-11
1.76257e-09
-2.52221e-11
2.1197e-09
-2.23461e-10
2.75317e-09
-4.61985e-10
3.30095e-09
-4.15893e-10
3.69474e-09
-2.96739e-10
4.03074e-09
-2.34857e-10
4.36814e-09
-2.2029e-10
4.75856e-09
-2.54725e-10
5.2677e-09
-3.56201e-10
5.95021e-09
-5.21247e-10
6.79148e-09
-6.93687e-10
7.73902e-09
-8.26722e-10
8.75565e-09
-9.20733e-10
9.84052e-09
-1.00931e-09
1.10171e-08
-1.12518e-09
1.23143e-08
-1.2851e-09
1.37522e-08
-1.48829e-09
1.5338e-08
-1.72336e-09
1.70725e-08
-1.98136e-09
1.89597e-08
-2.26326e-09
2.10103e-08
-2.57431e-09
2.32335e-08
-2.91014e-09
2.56091e-08
-3.24962e-09
2.8182e-08
-3.53268e-09
3.09102e-08
-3.73436e-09
3.3763e-08
-3.88719e-09
3.67212e-08
-4.01169e-09
3.97972e-08
-4.15572e-09
4.30222e-08
-4.3474e-09
4.64125e-08
-4.57077e-09
4.99808e-08
-4.82027e-09
5.37416e-08
-5.09877e-09
5.77057e-08
-5.38183e-09
6.18446e-08
-5.61983e-09
6.61031e-08
-5.77617e-09
7.04378e-08
-5.86811e-09
7.48393e-08
-5.94273e-09
7.93152e-08
-6.02479e-09
8.38621e-08
-6.1012e-09
8.84506e-08
-6.13651e-09
9.30313e-08
-6.10676e-09
9.75577e-08
-6.01905e-09
1.0201e-07
-5.91385e-09
1.06411e-07
-5.85259e-09
1.10811e-07
-5.86966e-09
1.15228e-07
-5.90173e-09
1.19638e-07
-5.90253e-09
1.23991e-07
-5.84682e-09
1.28244e-07
-5.72877e-09
1.32365e-07
-5.56631e-09
1.36343e-07
-5.38996e-09
1.40191e-07
-5.23614e-09
1.43939e-07
-5.12648e-09
1.47619e-07
-5.06381e-09
1.51257e-07
-5.03925e-09
1.54868e-07
-5.0323e-09
1.5844e-07
-5.00967e-09
1.61946e-07
-4.94429e-09
1.65355e-07
-4.83561e-09
1.68652e-07
-4.70014e-09
1.71829e-07
-4.54897e-09
1.74877e-07
-4.37982e-09
1.77781e-07
-4.1882e-09
1.80528e-07
-3.97375e-09
1.83107e-07
-3.74188e-09
1.85511e-07
-3.49782e-09
1.87737e-07
-3.24689e-09
1.89785e-07
-2.99393e-09
1.91657e-07
-2.74373e-09
1.93359e-07
-2.50039e-09
1.94899e-07
-2.26715e-09
1.96287e-07
-2.04615e-09
1.97532e-07
-1.83898e-09
1.98644e-07
-1.64676e-09
1.99635e-07
-1.4697e-09
2.00516e-07
-1.30786e-09
2.01297e-07
-1.16065e-09
2.01987e-07
-1.02764e-09
2.02596e-07
-9.07865e-10
2.03132e-07
-8.00483e-10
2.03604e-07
-7.04694e-10
2.04019e-07
-6.19539e-10
2.04383e-07
-5.43972e-10
2.04701e-07
-4.76976e-10
2.04981e-07
-4.17768e-10
2.05224e-07
-3.65193e-10
2.05437e-07
-3.19211e-10
2.05623e-07
-2.7876e-10
2.05786e-07
-2.43313e-10
2.05927e-07
-2.12398e-10
2.06051e-07
-1.85415e-10
2.06159e-07
-1.61852e-10
2.06253e-07
-1.41213e-10
2.06335e-07
-1.22974e-10
2.06406e-07
-1.07051e-10
2.06468e-07
-9.29553e-11
2.06522e-07
-8.0867e-11
2.0657e-07
-7.02831e-11
2.06611e-07
-6.1183e-11
2.06647e-07
-5.31846e-11
2.06678e-07
-4.62449e-11
2.06705e-07
-4.0333e-11
2.06729e-07
-3.5339e-11
2.0675e-07
-3.10883e-11
2.06768e-07
-2.7047e-11
2.06783e-07
-2.34408e-11
2.06797e-07
-2.05881e-11
2.06809e-07
-1.80046e-11
2.06819e-07
-1.56978e-11
2.06828e-07
-1.36776e-11
2.06836e-07
-1.18898e-11
2.06842e-07
-1.02943e-11
2.06848e-07
-8.91065e-12
2.06853e-07
-7.53037e-12
2.06857e-07
-6.4578e-12
2.06861e-07
-5.59487e-12
2.06864e-07
-4.83863e-12
2.06867e-07
-4.29416e-12
2.0687e-07
-3.94624e-12
2.06872e-07
-3.68572e-12
2.06874e-07
-3.42591e-12
2.06876e-07
-2.94087e-12
2.06878e-07
-2.54799e-12
2.06879e-07
-2.26497e-12
2.0688e-07
-2.00426e-12
2.06881e-07
-1.78401e-12
2.06882e-07
-1.6012e-12
2.06883e-07
-1.4642e-12
2.06884e-07
-1.34035e-12
2.06884e-07
-1.17064e-12
2.06885e-07
-1.01564e-12
2.06885e-07
-8.23944e-13
2.06886e-07
-8.51613e-13
2.06886e-07
-8.38579e-13
2.06886e-07
-8.30405e-13
2.06886e-07
-8.25124e-13
2.06887e-07
-7.78089e-13
2.06887e-07
-6.67407e-13
2.06887e-07
-5.45039e-13
2.06887e-07
-3.66777e-13
2.06887e-07
-2.54053e-13
2.06887e-07
-1.6852e-13
2.06886e-07
-3.38828e-14
2.06886e-07
1.161e-13
2.06886e-07
2.6635e-13
2.06886e-07
4.89979e-13
2.06886e-07
5.74928e-13
2.06886e-07
6.3322e-13
2.06886e-07
6.03304e-13
2.06886e-07
4.74804e-13
2.06886e-07
5.61528e-13
2.06886e-07
6.13339e-13
2.06886e-07
6.39655e-13
2.06886e-07
6.68086e-13
2.06886e-07
6.5795e-13
2.06885e-07
6.06521e-13
2.06885e-07
5.3265e-13
2.06884e-07
5.24738e-13
2.06883e-07
4.88623e-13
2.06883e-07
5.15719e-13
2.06882e-07
6.2507e-13
2.06881e-07
6.81985e-13
2.0688e-07
8.17875e-13
2.06879e-07
9.57214e-13
2.06878e-07
1.14051e-12
2.06876e-07
1.33085e-12
2.06875e-07
1.54441e-12
2.06873e-07
1.77466e-12
2.06872e-07
1.99753e-12
2.0687e-07
2.2042e-12
2.06866e-07
2.49869e-12
2.06856e-07
3.0629e-12
2.06853e-07
3.79999e-12
2.06849e-07
4.53502e-12
2.06846e-07
5.30795e-12
2.06841e-07
6.21126e-12
2.06836e-07
7.31886e-12
2.06829e-07
8.71367e-12
2.06821e-07
1.0364e-11
2.06812e-07
1.22448e-11
2.06802e-07
1.45051e-11
2.06789e-07
1.73996e-11
2.06784e-07
2.08187e-11
2.06766e-07
2.49212e-11
2.06745e-07
2.99255e-11
2.06719e-07
3.59442e-11
2.06689e-07
4.32502e-11
2.06652e-07
5.21546e-11
2.06609e-07
6.28422e-11
2.06558e-07
7.58325e-11
2.06496e-07
9.14242e-11
2.06425e-07
1.1007e-10
2.0634e-07
1.32231e-10
2.06242e-07
1.58132e-10
2.06129e-07
1.87671e-10
2.06002e-07
2.20263e-10
2.05862e-07
2.53139e-10
2.05717e-07
2.79229e-10
2.8517e-10
4.22986e-94
1.98774e-97
2.86818e-93
3.83967e-96
5.93124e-91
1.94365e-93
5.17236e-89
2.07441e-91
1.84466e-86
8.18782e-89
2.25978e-85
1.58098e-87
2.32883e-84
2.50211e-86
8.84826e-83
1.09291e-84
3.64682e-81
4.90498e-83
1.37257e-79
1.93812e-81
5.01578e-78
7.80276e-80
1.49395e-76
2.47502e-78
3.93392e-75
6.88774e-77
8.92923e-74
1.64588e-75
1.67765e-72
3.1415e-74
3.29692e-71
6.80823e-73
5.13374e-70
1.16258e-71
7.37097e-69
1.76626e-70
8.83736e-68
2.23163e-69
8.85598e-67
2.01429e-68
2.24622e-65
5.72666e-67
5.55161e-64
1.79016e-65
2.12588e-57
7.89928e-59
1.40514e-53
6.04428e-55
-5.81089e-41
-7.10696e-42
-2.9236e-39
-4.17839e-40
-1.01331e-25
-1.71367e-26
-5.12688e-24
-1.03587e-24
-1.26673e-22
-3.05283e-23
3.29455e-16
2.18527e-17
3.99515e-16
1.41428e-16
4.80177e-16
1.52507e-16
4.91413e-16
4.18808e-17
9.56033e-13
5.22415e-13
4.31986e-13
1.12961e-12
-2.38806e-13
-4.80375e-13
2.14901e-13
-1.84385e-13
9.36477e-16
-3.86275e-15
2.5767e-16
-1.41871e-15
2.36923e-16
-8.64803e-16
2.43836e-16
-7.07884e-16
1.02025e-12
-1.73886e-14
2.36544e-12
-4.40568e-14
2.25467e-12
-1.26198e-13
1.20008e-12
-2.16116e-13
4.17078e-13
-8.71735e-14
6.84264e-14
-1.19236e-14
5.7227e-15
-3.49751e-19
4.0018e-16
-8.32743e-16
4.72606e-16
-8.97839e-15
1.44511e-11
-6.24833e-13
1.75454e-10
-1.81475e-13
4.38065e-10
-1.4087e-14
5.74793e-10
-4.38982e-16
6.07787e-10
-8.99486e-16
6.23849e-10
-1.99023e-15
6.70211e-10
-1.47285e-14
7.67889e-10
-2.69977e-14
9.57551e-10
-4.05521e-14
1.28319e-09
-2.79766e-14
1.7097e-09
-2.6682e-14
2.17839e-09
-2.81392e-14
2.66938e-09
-3.37362e-14
3.22352e-09
-2.04829e-14
3.91123e-09
-7.35461e-15
4.80402e-09
-2.47392e-15
5.95456e-09
-1.987e-14
7.38664e-09
-3.30615e-14
9.10947e-09
-3.42548e-14
1.11422e-08
-3.79099e-14
1.3516e-08
-4.12318e-14
1.62467e-08
-4.52757e-14
1.93037e-08
-4.81465e-14
2.26082e-08
-5.42449e-14
2.60759e-08
-4.44491e-14
2.9696e-08
-1.17373e-14
3.35999e-08
-2.76602e-15
3.79839e-08
-9.45231e-16
4.29485e-08
-1.48441e-16
4.84138e-08
-2.26371e-09
5.4374e-08
-2.58777e-09
6.08056e-08
-3.02821e-09
6.75157e-08
-3.65885e-09
7.44678e-08
-4.48706e-09
8.16511e-08
-5.37508e-09
8.90892e-08
-6.17717e-09
9.6832e-08
-6.91671e-09
1.04905e-07
-7.7459e-09
1.13265e-07
-8.78872e-09
1.21786e-07
-1.00098e-08
1.30295e-07
-1.12207e-08
1.38611e-07
-1.22349e-08
1.46253e-07
-1.29705e-08
1.53846e-07
-1.34171e-08
1.61464e-07
-1.34738e-08
1.69058e-07
-1.34732e-08
1.76635e-07
-1.34793e-08
1.84163e-07
-1.34264e-08
1.9159e-07
-1.32702e-08
1.98829e-07
-1.29637e-08
2.05789e-07
-1.25243e-08
2.12413e-07
-1.20133e-08
2.18701e-07
-1.15254e-08
2.24708e-07
-1.11345e-08
2.30482e-07
-1.08385e-08
2.36074e-07
-1.06313e-08
2.41532e-07
-1.04906e-08
2.46851e-07
-1.03283e-08
2.51967e-07
-1.00606e-08
2.56828e-07
-9.6969e-09
2.61437e-07
-9.30904e-09
2.65819e-07
-8.93075e-09
2.69983e-07
-8.5446e-09
2.73917e-07
-8.12213e-09
2.77595e-07
-7.66312e-09
2.81029e-07
-7.17587e-09
2.84205e-07
-6.67342e-09
2.87121e-07
-6.16357e-09
2.89784e-07
-5.65567e-09
2.92199e-07
-5.15806e-09
2.94386e-07
-4.67872e-09
2.96344e-07
-4.22329e-09
2.98093e-07
-3.79553e-09
2.99652e-07
-3.39788e-09
3.01036e-07
-3.03151e-09
3.02256e-07
-2.69646e-09
3.03339e-07
-2.39186e-09
3.04295e-07
-2.11656e-09
3.05136e-07
-1.86896e-09
3.05875e-07
-1.64724e-09
3.06524e-07
-1.44942e-09
3.071e-07
-1.27351e-09
3.07599e-07
-1.1175e-09
3.08034e-07
-9.79465e-10
3.08413e-07
-8.57584e-10
3.08737e-07
-7.50112e-10
3.09027e-07
-6.55502e-10
3.0928e-07
-5.72385e-10
3.09501e-07
-4.9955e-10
3.09693e-07
-4.35813e-10
3.0986e-07
-3.79981e-10
3.10015e-07
-3.31244e-10
3.10145e-07
-2.88747e-10
3.10255e-07
-2.51689e-10
3.10348e-07
-2.19378e-10
3.10419e-07
-1.91053e-10
3.10491e-07
-1.66293e-10
3.10554e-07
-1.44603e-10
3.1061e-07
-1.25766e-10
3.10658e-07
-1.09398e-10
3.107e-07
-9.51567e-11
3.10737e-07
-8.2706e-11
3.10778e-07
-7.18586e-11
3.10812e-07
-6.25492e-11
3.10832e-07
-5.47766e-11
3.10841e-07
-4.79442e-11
3.10859e-07
-4.17978e-11
3.10875e-07
-3.63848e-11
3.10888e-07
-3.17201e-11
3.109e-07
-2.7635e-11
3.10911e-07
-2.40457e-11
3.1092e-07
-2.08868e-11
3.10928e-07
-1.81154e-11
3.10935e-07
-1.56693e-11
3.10941e-07
-1.35242e-11
3.10946e-07
-1.17187e-11
3.10951e-07
-1.02217e-11
3.10955e-07
-8.99494e-12
3.10959e-07
-7.86354e-12
3.10975e-07
-6.86517e-12
3.10983e-07
-6.10468e-12
3.10981e-07
-5.53716e-12
3.10979e-07
-4.955e-12
3.10981e-07
-4.36118e-12
3.10983e-07
-3.85065e-12
3.10984e-07
-3.44043e-12
3.10985e-07
-3.09483e-12
3.10987e-07
-2.80389e-12
3.10988e-07
-2.55957e-12
3.10988e-07
-2.34373e-12
3.10989e-07
-2.1531e-12
3.1099e-07
-1.85035e-12
3.10999e-07
-1.61655e-12
3.11e-07
-1.49538e-12
3.11001e-07
-1.44222e-12
3.11001e-07
-1.37111e-12
3.11001e-07
-1.25427e-12
3.11002e-07
-1.14195e-12
3.11001e-07
-1.06489e-12
3.10997e-07
-9.12764e-13
3.10998e-07
-7.7689e-13
3.10998e-07
-5.98335e-13
3.10998e-07
-3.99112e-13
3.10998e-07
-2.32081e-13
3.10999e-07
-6.61809e-14
3.10999e-07
1.05487e-13
3.10999e-07
2.10937e-13
3.10999e-07
3.45025e-13
3.11003e-07
4.95608e-13
3.11005e-07
5.47887e-13
3.11004e-07
6.11469e-13
3.11004e-07
5.86359e-13
3.11004e-07
6.36434e-13
3.11004e-07
6.94253e-13
3.11004e-07
7.32669e-13
3.11004e-07
7.68519e-13
3.11004e-07
7.85933e-13
3.11004e-07
7.69559e-13
3.11003e-07
7.27496e-13
3.10999e-07
7.26019e-13
3.10999e-07
8.16314e-13
3.10998e-07
9.24987e-13
3.10998e-07
1.14275e-12
3.10997e-07
1.34883e-12
3.10997e-07
1.65118e-12
3.10999e-07
2.00681e-12
3.10999e-07
2.3978e-12
3.10997e-07
2.78258e-12
3.10996e-07
3.21961e-12
3.10994e-07
3.69913e-12
3.10987e-07
4.21948e-12
3.10975e-07
5.00117e-12
3.10971e-07
6.09585e-12
3.10968e-07
7.48197e-12
3.10963e-07
8.97073e-12
3.10958e-07
1.0636e-11
3.10952e-07
1.25661e-11
3.10944e-07
1.48251e-11
3.10935e-07
1.75766e-11
3.10937e-07
2.08422e-11
3.10927e-07
2.45859e-11
3.10912e-07
2.89876e-11
3.10893e-07
3.42266e-11
3.10863e-07
4.04941e-11
3.10839e-07
4.80522e-11
3.10812e-07
5.69663e-11
3.1078e-07
6.76029e-11
3.10743e-07
8.0162e-11
3.107e-07
9.49441e-11
3.1065e-07
1.12511e-10
3.10603e-07
1.33058e-10
3.10541e-07
1.56958e-10
3.10467e-07
1.84336e-10
3.10384e-07
2.15466e-10
3.10292e-07
2.50069e-10
3.10192e-07
2.87326e-10
3.10087e-07
3.25663e-10
3.09979e-07
3.6128e-10
3.09871e-07
3.868e-10
3.91336e-10
2.26821e-97
1.52264e-100
7.59899e-96
2.33843e-98
2.13691e-93
1.21632e-95
2.64273e-91
1.92581e-93
1.4952e-88
1.11383e-90
1.56183e-87
1.41993e-89
2.58441e-86
2.65717e-88
1.09432e-84
1.27323e-86
4.94723e-83
6.29595e-85
1.95714e-81
3.19984e-83
7.05947e-80
1.37196e-81
2.44551e-78
4.96597e-80
6.90892e-77
1.49635e-78
1.67974e-75
2.73015e-77
3.13005e-74
1.40324e-75
6.12599e-73
2.76023e-74
1.1429e-71
5.38341e-73
1.78618e-70
9.22027e-72
2.27833e-69
1.30953e-70
2.10829e-68
1.33826e-69
4.85317e-67
2.68891e-68
1.76163e-65
5.79391e-67
7.6295e-59
2.68401e-60
5.81506e-55
2.29993e-56
-8.14306e-42
-8.67385e-43
-4.65373e-40
-5.5338e-41
-1.79537e-26
-2.37906e-27
-1.05095e-24
-1.54415e-25
-3.12539e-23
-5.03645e-24
1.94346e-17
1.37632e-18
1.93463e-16
9.18189e-18
4.31053e-16
2.34298e-17
4.59896e-16
1.7315e-17
4.89142e-13
3.35739e-14
1.53305e-12
8.39998e-14
1.06723e-12
-2.5345e-14
8.30373e-13
4.77761e-15
7.29353e-13
6.0938e-14
6.36726e-13
5.53111e-14
5.46831e-13
5.48972e-14
4.8459e-13
3.35578e-14
3.48788e-13
-2.61106e-14
2.48581e-13
-7.29848e-15
1.58166e-13
-9.56239e-15
2.91334e-13
-1.15821e-14
4.55483e-13
-1.57891e-14
3.91917e-13
-9.45675e-15
3.89695e-13
-4.8157e-17
7.00123e-13
1.07388e-13
9.40406e-13
3.52705e-13
1.60821e-13
-2.73504e-14
5.84096e-15
-2.67419e-14
9.01185e-16
-9.36665e-15
6.12465e-16
-4.4376e-16
7.87583e-16
-1.33653e-15
1.0075e-15
-2.54032e-15
1.28642e-15
-1.30793e-14
1.66319e-15
-2.03363e-14
2.21213e-15
-2.45182e-14
2.55224e-15
-2.82302e-14
2.69364e-15
-3.09452e-14
2.77149e-15
-3.40535e-14
2.91428e-15
-3.71064e-14
2.98402e-15
-2.05482e-14
3.18726e-15
-6.40063e-15
3.45513e-15
-4.42127e-15
3.92035e-15
-2.4359e-14
4.24853e-15
-3.82051e-14
4.3778e-15
-3.99236e-14
4.44327e-15
-4.4792e-14
4.37071e-15
-4.92849e-14
4.20831e-15
-5.34948e-14
3.77361e-15
-5.74885e-14
3.28399e-15
-6.16205e-14
2.28056e-15
-4.67443e-14
1.29254e-15
-1.23685e-14
9.30914e-16
-3.21188e-15
8.62997e-16
-1.28029e-15
9.04475e-16
-6.08009e-16
3.97658e-10
-2.17784e-14
1.4958e-09
-2.59914e-15
3.31614e-09
-1.63003e-14
6.29049e-09
-8.80334e-15
1.02687e-08
-4.22655e-15
1.46569e-08
-1.93846e-15
1.93689e-08
-9.61688e-16
2.52516e-08
-5.12729e-16
3.35676e-08
-2.87385e-16
4.51533e-08
-1.6188e-16
5.96806e-08
-3.20819e-16
7.61515e-08
-5.3023e-16
9.41455e-08
-6.48647e-16
1.13818e-07
-7.32822e-16
1.34991e-07
-5.96781e-16
1.56673e-07
-2.75006e-16
1.77242e-07
-2.11122e-09
1.95596e-07
-6.32023e-09
2.12903e-07
-8.21858e-09
2.29686e-07
-1.10464e-08
2.45107e-07
-1.41358e-08
2.58952e-07
-1.68827e-08
2.70819e-07
-1.88426e-08
2.79905e-07
-1.98649e-08
2.89035e-07
-2.0085e-08
2.97705e-07
-1.94976e-08
3.05838e-07
-1.87554e-08
3.1355e-07
-1.81979e-08
3.20836e-07
-1.76113e-08
3.27607e-07
-1.68296e-08
3.33788e-07
-1.58774e-08
3.39456e-07
-1.4977e-08
3.44762e-07
-1.42361e-08
3.49752e-07
-1.35344e-08
3.54405e-07
-1.27769e-08
3.58697e-07
-1.19569e-08
3.62647e-07
-1.1124e-08
3.66264e-07
-1.02858e-08
3.69547e-07
-9.4523e-09
3.72521e-07
-8.62695e-09
3.7519e-07
-7.82552e-09
3.77579e-07
-7.06019e-09
3.79697e-07
-6.33929e-09
3.8157e-07
-5.66845e-09
3.83222e-07
-5.05027e-09
3.84676e-07
-4.48546e-09
3.8595e-07
-3.97298e-09
3.87062e-07
-3.51066e-09
3.88041e-07
-3.09581e-09
3.88897e-07
-2.72502e-09
3.89647e-07
-2.39473e-09
3.90307e-07
-2.10158e-09
3.90876e-07
-1.84211e-09
3.91372e-07
-1.613e-09
3.91803e-07
-1.41106e-09
3.92179e-07
-1.23332e-09
3.92506e-07
-1.07707e-09
3.92791e-07
-9.40024e-10
3.93039e-07
-8.20011e-10
3.93255e-07
-7.14947e-10
3.93443e-07
-6.23106e-10
3.93606e-07
-5.42911e-10
3.93748e-07
-4.72858e-10
3.93872e-07
-4.11809e-10
3.93979e-07
-3.58635e-10
3.94072e-07
-3.12322e-10
3.94153e-07
-2.71935e-10
3.94224e-07
-2.36617e-10
3.94286e-07
-2.05939e-10
3.94339e-07
-1.79234e-10
3.94386e-07
-1.56005e-10
3.94427e-07
-1.3575e-10
3.94462e-07
-1.18063e-10
3.94493e-07
-1.02693e-10
3.94519e-07
-8.94479e-11
3.94542e-07
-7.80492e-11
3.94562e-07
-6.81494e-11
3.9458e-07
-5.94441e-11
3.94595e-07
-5.17728e-11
3.94608e-07
-4.50543e-11
3.9462e-07
-3.92664e-11
3.9463e-07
-3.41893e-11
3.94639e-07
-2.97563e-11
3.94646e-07
-2.5883e-11
3.94653e-07
-2.2467e-11
3.94659e-07
-1.95955e-11
3.94664e-07
-1.70817e-11
3.94669e-07
-1.49475e-11
3.94673e-07
-1.30649e-11
3.94676e-07
-1.1405e-11
3.94679e-07
-9.9619e-12
3.94682e-07
-8.74134e-12
3.94684e-07
-7.68569e-12
3.94686e-07
-6.77404e-12
3.94688e-07
-6.02618e-12
3.9469e-07
-5.3712e-12
3.94691e-07
-4.7963e-12
3.94693e-07
-4.30312e-12
3.94694e-07
-3.86034e-12
3.94695e-07
-3.47809e-12
3.94696e-07
-3.16284e-12
3.94697e-07
-2.88009e-12
3.94698e-07
-2.56792e-12
3.94699e-07
-2.22745e-12
3.947e-07
-1.98821e-12
3.947e-07
-1.82463e-12
3.94701e-07
-1.74889e-12
3.94702e-07
-1.62171e-12
3.94702e-07
-1.45222e-12
3.94703e-07
-1.31453e-12
3.94703e-07
-1.19821e-12
3.94704e-07
-1.02591e-12
3.94704e-07
-8.46445e-13
3.94705e-07
-6.47867e-13
3.94705e-07
-4.47587e-13
3.94706e-07
-2.57264e-13
3.94706e-07
-8.30039e-14
3.94706e-07
7.8822e-14
3.94707e-07
2.33647e-13
3.94707e-07
3.79918e-13
3.94707e-07
4.86101e-13
3.94707e-07
5.69938e-13
3.94707e-07
6.23968e-13
3.94707e-07
6.74241e-13
3.94706e-07
7.3381e-13
3.94706e-07
7.8898e-13
3.94706e-07
8.46305e-13
3.94706e-07
8.97656e-13
3.94706e-07
9.39665e-13
3.94705e-07
9.85478e-13
3.94705e-07
1.07305e-12
3.94704e-07
1.22426e-12
3.94704e-07
1.44731e-12
3.94703e-07
1.73615e-12
3.94702e-07
2.09148e-12
3.94701e-07
2.51533e-12
3.947e-07
3.00943e-12
3.94699e-07
3.55659e-12
3.94698e-07
4.17326e-12
3.94696e-07
4.88363e-12
3.94694e-07
5.72296e-12
3.94692e-07
6.74539e-12
3.94688e-07
8.03576e-12
3.94685e-07
9.64302e-12
3.9468e-07
1.15633e-11
3.94675e-07
1.37894e-11
3.94669e-07
1.63493e-11
3.94662e-07
1.93157e-11
3.94654e-07
2.27825e-11
3.94644e-07
2.68537e-11
3.94633e-07
3.16061e-11
3.9462e-07
3.71282e-11
3.94605e-07
4.35981e-11
3.94587e-07
5.12048e-11
3.94567e-07
6.0168e-11
3.94544e-07
7.07241e-11
3.94517e-07
8.30945e-11
3.94487e-07
9.75397e-11
3.94452e-07
1.14329e-10
3.94413e-07
1.3376e-10
3.94363e-07
1.5616e-10
3.94311e-07
1.81873e-10
3.94256e-07
2.10979e-10
3.94202e-07
2.43441e-10
3.94141e-07
2.79085e-10
3.94074e-07
3.17235e-10
3.94005e-07
3.56726e-10
3.93922e-07
3.95504e-10
3.93852e-07
4.29778e-10
3.93785e-07
4.53163e-10
4.5709e-10
1.50559e-100
1.46997e-103
2.3131e-98
1.27301e-100
1.19432e-95
1.12583e-97
1.89166e-93
2.32789e-95
8.32493e-91
1.18866e-92
1.46302e-89
2.3367e-91
2.7375e-88
4.97335e-90
1.26635e-86
2.58766e-88
6.23946e-85
1.41921e-86
2.33691e-83
4.69237e-85
1.36754e-81
2.77858e-83
4.99253e-80
1.10194e-81
1.51015e-78
3.61209e-80
2.7793e-77
1.01866e-78
-1.66974e-74
-6.60966e-76
-7.48359e-73
-3.2012e-74
-1.42483e-71
-6.59402e-73
-1.72456e-70
-8.6483e-72
-1.50826e-69
-8.21049e-71
-1.03388e-68
-6.12041e-70
-2.19182e-68
-1.41324e-69
5.27832e-67
2.59016e-68
2.60104e-60
8.27429e-62
2.22208e-56
7.81144e-58
-9.99491e-43
-9.09815e-44
-6.21553e-41
-6.1357e-42
-2.52833e-27
-2.69089e-28
-1.5992e-25
-1.81884e-26
-5.35263e-24
-6.42544e-25
1.29236e-18
8.33618e-20
1.00761e-17
6.00703e-19
3.47646e-17
1.12929e-18
4.96347e-17
2.24619e-18
3.15099e-14
2.11715e-15
1.08472e-13
6.88138e-15
8.16905e-14
1.25675e-15
8.90561e-14
-1.13246e-15
1.52321e-13
-8.69881e-16
2.27244e-13
6.60445e-16
2.23045e-13
-4.91382e-16
1.6992e-13
-1.09043e-15
2.94779e-13
-5.00526e-16
4.15616e-13
8.24978e-15
1.41898e-13
8.90444e-15
6.52833e-14
-1.61687e-15
4.23672e-14
-1.23284e-15
2.53869e-14
-5.55257e-16
2.39333e-14
-1.48751e-16
1.32079e-13
-7.78336e-17
5.24406e-13
2.33744e-15
9.42503e-13
1.69243e-14
1.06702e-12
7.09884e-14
1.08937e-12
6.69996e-14
3.30556e-13
1.5272e-14
3.2593e-13
1.82329e-15
1.11894e-12
3.43199e-15
2.86397e-12
1.39353e-14
2.94911e-12
9.96101e-15
2.98517e-12
2.20401e-15
2.99895e-12
-1.01126e-15
3.00581e-12
-1.56488e-15
3.01434e-12
-1.58188e-15
2.32729e-12
-6.83649e-15
3.50279e-13
-1.49352e-14
3.56045e-13
-1.01533e-14
6.37604e-13
-1.23847e-14
1.92999e-12
-1.49118e-14
1.96328e-12
-1.64625e-14
1.68528e-12
-6.61976e-15
1.75236e-12
-5.40623e-15
1.71344e-12
-1.37652e-15
1.66536e-12
5.44546e-16
1.59546e-12
1.40757e-14
1.50399e-12
3.30573e-14
2.37086e-13
3.18854e-14
3.26657e-14
9.68903e-15
2.00317e-14
8.64669e-15
1.39216e-14
4.28599e-15
5.94431e-15
1.91392e-15
2.09137e-15
-1.72709e-14
1.20249e-15
-4.02639e-15
1.80994e-15
-1.8848e-14
1.5478e-15
-1.01245e-14
1.06317e-15
-4.53755e-15
7.7013e-16
-2.05774e-15
6.41294e-16
-1.04776e-15
5.96791e-16
-5.97987e-16
5.96534e-16
-4.012e-16
6.21454e-16
-2.81779e-16
6.63924e-16
-4.7736e-16
7.32143e-16
-6.57542e-16
8.17181e-16
-7.13735e-16
9.12231e-16
-7.55342e-16
9.2623e-16
-5.92331e-16
9.44932e-16
-3.56508e-16
4.46681e-10
-8.05098e-16
7.53116e-09
-3.20212e-16
2.9359e-08
-5.37237e-16
6.24292e-08
-4.92172e-16
1.03962e-07
-7.77713e-16
1.50074e-07
-2.38409e-15
1.96605e-07
-1.15254e-14
2.39582e-07
-6.24269e-14
2.77567e-07
-1.61963e-09
3.09897e-07
-6.22465e-09
3.38016e-07
-7.77076e-09
3.61572e-07
-1.42084e-08
3.77312e-07
-2.28324e-08
3.87978e-07
-2.48561e-08
3.96168e-07
-2.3677e-08
4.03163e-07
-2.20473e-08
4.09578e-07
-2.06143e-08
4.15654e-07
-1.93967e-08
4.21105e-07
-1.80916e-08
4.25927e-07
-1.67192e-08
4.30228e-07
-1.53876e-08
4.34088e-07
-1.41208e-08
4.37531e-07
-1.28824e-08
4.40591e-07
-1.16781e-08
4.43295e-07
-1.05238e-08
4.4567e-07
-9.43245e-09
4.47746e-07
-8.41516e-09
4.49556e-07
-7.47794e-09
4.51129e-07
-6.62342e-09
4.52489e-07
-5.85052e-09
4.53672e-07
-5.15583e-09
4.54699e-07
-4.53471e-09
4.55588e-07
-3.98184e-09
4.56355e-07
-3.49146e-09
4.57018e-07
-3.05776e-09
4.57591e-07
-2.67514e-09
4.58087e-07
-2.3383e-09
4.58517e-07
-2.04227e-09
4.58885e-07
-1.78253e-09
4.59191e-07
-1.5549e-09
4.59469e-07
-1.35559e-09
4.5971e-07
-1.18123e-09
4.59919e-07
-1.02891e-09
4.601e-07
-8.95952e-10
4.60257e-07
-7.79989e-10
4.60393e-07
-6.79001e-10
4.60511e-07
-5.91058e-10
4.60613e-07
-5.14472e-10
4.60702e-07
-4.47749e-10
4.60779e-07
-3.89628e-10
4.60846e-07
-3.3897e-10
4.60904e-07
-2.94844e-10
4.60955e-07
-2.56377e-10
4.61015e-07
-2.22992e-10
4.61058e-07
-1.94066e-10
4.61091e-07
-1.68934e-10
4.61119e-07
-1.47038e-10
4.61145e-07
-1.27984e-10
4.61167e-07
-1.11471e-10
4.61186e-07
-9.71715e-11
4.61203e-07
-8.47475e-11
4.61214e-07
-7.39151e-11
4.6122e-07
-6.44341e-11
4.61231e-07
-5.61231e-11
4.61241e-07
-4.88631e-11
4.61249e-07
-4.25574e-11
4.61256e-07
-3.70651e-11
4.61263e-07
-3.22884e-11
4.61268e-07
-2.81532e-11
4.61274e-07
-2.45304e-11
4.61287e-07
-2.13874e-11
4.61292e-07
-1.87119e-11
4.61295e-07
-1.63895e-11
4.61298e-07
-1.43382e-11
4.613e-07
-1.25319e-11
4.61294e-07
-1.10123e-11
4.6129e-07
-9.65832e-12
4.61292e-07
-8.52792e-12
4.61293e-07
-7.55918e-12
4.61294e-07
-6.75008e-12
4.61295e-07
-6.01981e-12
4.61296e-07
-5.36413e-12
4.61297e-07
-4.79405e-12
4.61298e-07
-4.27745e-12
4.61298e-07
-3.81801e-12
4.61299e-07
-3.39464e-12
4.61299e-07
-3.01505e-12
4.613e-07
-2.70538e-12
4.61301e-07
-2.40895e-12
4.61314e-07
-2.14889e-12
4.61316e-07
-1.99783e-12
4.61315e-07
-1.85773e-12
4.61315e-07
-1.70205e-12
4.61315e-07
-1.54994e-12