/*--------------------------------*- C++ -*----------------------------------*\
| =========                 |                                                 |
| \\      /  F ield         | OpenFOAM: The Open Source CFD Toolbox           |
|  \\    /   O peration     | Version:  2406                                  |
|   \\  /    A nd           | Website:  www.openfoam.com                      |
|    \\/     M anipulation  |                                                 |
\*---------------------------------------------------------------------------*/
FoamFile
{
    version     2.0;
    format      ascii;
    arch        "LSB;label=32;scalar=64";
    class       volScalarField;
    location    "0.15";
    object      p_rgh;
}
// * * * * * * * * * * * * * * * * * * * * * * * * * * * * * * * * * * * * * //

dimensions      [1 -1 -2 0 0 0 0];

internalField   nonuniform List<scalar> 
6250
(
4999.47
4999.27
4999.48
4999.57
4999.53
4999.48
4999.47
4999.47
4999.46
4999.45
4999.44
4999.44
4999.43
4999.42
4999.42
4999.41
4999.4
4999.4
4999.4
4999.39
4999.39
4999.39
4999.38
4999.38
4999.38
4999.38
4999.38
4999.38
4999.38
4999.37
5007.6
5034.15
5047.26
5054.28
5045.71
5036.92
5031.91
5029.54
5027.96
5025.94
5023.22
5020.4
5018
5016.07
5014.41
5012.82
5011.17
5009.46
5007.77
5006.24
5004.95
5004.23
5004.09
5003.83
5002.86
5001.35
4999.73
4998.28
4997.12
4996.28
4995.65
4995.02
4994.22
4993.19
4992.03
4990.84
4989.7
4988.64
4987.66
4986.73
4985.82
4984.92
4983.96
4982.86
4981.51
4979.84
4977.83
4975.58
4973.29
4971.12
4969.15
4967.31
4965.5
4963.6
4961.43
4958.91
4956.02
4952.87
4949.53
4946.03
4942.34
4938.41
4934.25
4929.97
4925.7
4921.58
4917.57
4913.57
4909.39
4904.94
4900.11
4894.89
4889.29
4883.31
4876.97
4870.22
4862.97
4855.08
4846.35
4836.62
4825.76
4813.69
4800.33
4785.63
4769.54
4752.03
4733.1
4712.76
4691.04
4668
4643.69
4618.18
4591.56
4563.9
4535.29
4505.79
4475.49
4444.47
4412.8
4380.54
4347.76
4314.5
4280.84
4246.8
4212.45
4177.81
4142.9
4107.77
4072.44
4036.95
4001.3
3965.53
3929.64
3893.65
3857.57
3821.42
3785.2
3748.92
3712.6
3676.23
3639.82
3603.38
3566.9
3530.4
3493.87
3457.32
3420.76
3384.18
3347.59
3310.99
3274.39
3237.78
3201.17
3164.54
3127.91
3091.27
3054.62
3017.96
2981.31
2944.65
2907.99
2871.33
2834.68
2798.03
2761.38
2724.74
2688.1
2651.45
2614.81
2578.16
2541.52
2504.87
2468.22
2431.56
2394.91
2358.25
2321.59
2284.93
2248.28
2211.62
2174.97
2138.32
2101.68
2065.05
2028.41
1991.78
1955.16
1918.53
1881.9
1845.27
1808.64
1772.01
1735.36
1698.72
1662.06
1625.41
1588.74
1552.07
1515.4
1478.73
1442.06
1405.39
1368.71
1332.04
1295.37
1258.69
1222.02
1185.35
1148.67
1112
1075.33
1038.66
1001.98
965.309
928.635
891.963
855.292
818.624
781.957
745.293
708.63
671.97
635.314
598.661
562.016
525.376
488.742
452.114
415.496
378.888
342.294
305.72
269.171
232.658
196.198
159.813
123.507
87.2504
51.2521
16.6356
4999.44
4999.21
4999.46
4999.57
4999.53
4999.48
4999.47
4999.47
4999.46
4999.45
4999.44
4999.43
4999.43
4999.42
4999.41
4999.41
4999.4
4999.4
4999.39
4999.39
4999.39
4999.38
4999.38
4999.38
4999.38
4999.38
4999.38
4999.38
4999.38
4999.38
4999.35
4998.75
4999.08
4999.14
4998.66
4998.32
4998.46
4999.97
5002.38
5003.31
5002.32
5000.56
4999.17
4998.31
4997.82
4997.55
4997.37
4997.25
4997.15
4997.29
4997.24
4997.24
4999.3
5000.92
4999.71
4997.28
4995.26
4993.78
4992.82
4992.45
4992.49
4992.34
4991.62
4990.36
4988.85
4987.34
4985.92
4984.56
4983.17
4981.68
4980.11
4978.48
4976.8
4974.95
4972.78
4970.16
4967.03
4963.49
4959.91
4956.67
4953.89
4951.4
4949.08
4946.78
4944.25
4941.29
4937.95
4934.47
4931.07
4927.8
4924.54
4921.13
4917.48
4913.63
4909.77
4906.18
4902.91
4899.69
4896.21
4892.34
4888.01
4883.18
4877.86
4872.12
4865.98
4859.46
4852.5
4844.99
4836.74
4827.5
4817.15
4805.59
4792.8
4778.68
4763.17
4746.23
4727.85
4708.04
4686.82
4664.24
4640.36
4615.25
4588.98
4561.64
4533.3
4504.06
4473.98
4443.14
4411.63
4379.52
4346.87
4313.74
4280.18
4246.23
4211.94
4177.36
4142.51
4107.43
4072.15
4036.7
4001.09
3965.35
3929.49
3893.52
3857.46
3821.32
3785.11
3748.84
3712.52
3676.16
3639.76
3603.33
3566.86
3530.37
3493.85
3457.31
3420.75
3384.17
3347.59
3310.99
3274.39
3237.78
3201.17
3164.54
3127.91
3091.27
3054.62
3017.97
2981.31
2944.65
2907.99
2871.34
2834.69
2798.04
2761.39
2724.74
2688.1
2651.45
2614.81
2578.17
2541.52
2504.87
2468.22
2431.56
2394.91
2358.25
2321.59
2284.93
2248.27
2211.62
2174.97
2138.32
2101.68
2065.04
2028.41
1991.78
1955.16
1918.53
1881.9
1845.27
1808.64
1772
1735.36
1698.72
1662.06
1625.41
1588.74
1552.08
1515.41
1478.74
1442.07
1405.39
1368.72
1332.05
1295.37
1258.7
1222.02
1185.35
1148.68
1112
1075.33
1038.66
1001.99
965.32
928.649
891.98
855.312
818.647
781.983
745.322
708.666
672.015
635.368
598.723
562.085
525.453
488.829
452.214
415.61
379.018
342.441
305.883
269.348
232.843
196.378
159.965
123.569
87.0994
50.8086
16.4089
4999.43
4999.21
4999.46
4999.57
4999.52
4999.47
4999.46
4999.46
4999.46
4999.45
4999.44
4999.43
4999.42
4999.42
4999.41
4999.4
4999.4
4999.39
4999.38
4999.38
4999.37
4999.37
4999.36
4999.36
4999.35
4999.35
4999.34
4999.33
4999.31
4999.28
4999.22
4999.2
4999.23
4999.2
4998.68
4998.59
4998.87
4998.97
4998.97
4998.95
4998.94
4998.93
4998.9
4998.85
4998.81
4998.8
4998.8
4998.79
4998.77
4998.77
4998.76
4998.45
4998.56
4999.4
4999.08
4998.43
4998.05
4997.81
4997.62
4997.5
4997.5
4997.48
4997.26
4996.81
4996.23
4995.62
4995.03
4994.44
4993.79
4993.02
4992.16
4991.27
4990.4
4989.54
4988.48
4986.96
4984.82
4982.13
4978.99
4975.5
4971.76
4967.72
4963.55
4959.5
4955.17
4949.95
4943.82
4937.37
4931.1
4925.04
4918.78
4911.86
4904.13
4895.9
4888.14
4882.24
4878.74
4876.67
4874.99
4873.08
4870.64
4867.5
4863.65
4859.23
4854.42
4849.29
4843.78
4837.74
4830.78
4822.53
4812.88
4801.98
4789.89
4776.52
4761.7
4745.38
4727.54
4708.19
4687.33
4665.04
4641.36
4616.38
4590.18
4562.87
4534.53
4505.25
4475.12
4444.22
4412.64
4380.45
4347.72
4314.51
4280.88
4246.86
4212.5
4177.85
4142.94
4107.81
4072.49
4037
4001.36
3965.59
3929.7
3893.7
3857.62
3821.45
3785.22
3748.94
3712.61
3676.24
3639.83
3603.39
3566.92
3530.41
3493.89
3457.35
3420.79
3384.21
3347.62
3311.01
3274.41
3237.79
3201.17
3164.55
3127.92
3091.28
3054.63
3017.98
2981.33
2944.67
2908.01
2871.35
2834.7
2798.05
2761.4
2724.75
2688.1
2651.46
2614.81
2578.17
2541.52
2504.87
2468.22
2431.56
2394.9
2358.25
2321.58
2284.93
2248.27
2211.62
2174.97
2138.32
2101.68
2065.04
2028.41
1991.78
1955.16
1918.53
1881.9
1845.27
1808.64
1772
1735.36
1698.71
1662.06
1625.4
1588.74
1552.07
1515.4
1478.73
1442.06
1405.39
1368.72
1332.05
1295.37
1258.7
1222.03
1185.35
1148.68
1112
1075.33
1038.66
1001.99
965.321
928.654
891.988
855.323
818.661
782.001
745.342
708.687
672.038
635.395
598.755
562.124
525.499
488.882
452.275
415.678
379.092
342.518
305.958
269.417
232.896
196.403
159.944
123.459
86.8082
50.3
16.177
4999.43
4999.19
4999.44
4999.56
4999.52
4999.47
4999.46
4999.46
4999.45
4999.44
4999.43
4999.42
4999.42
4999.41
4999.4
4999.39
4999.39
4999.38
4999.37
4999.36
4999.36
4999.35
4999.34
4999.33
4999.32
4999.31
4999.29
4999.27
4999.25
4999.22
4999.17
4999.11
4999.04
4998.97
4998.92
4998.92
4998.94
4998.96
4998.97
4998.97
4998.98
4998.98
4998.94
4998.87
4998.81
4998.78
4998.78
4998.8
4998.81
4998.82
4998.81
4998.73
4998.5
4998.54
4998.63
4998.65
4998.63
4998.63
4998.62
4998.61
4998.61
4998.6
4998.59
4998.58
4998.57
4998.56
4998.54
4998.54
4998.53
4998.52
4998.51
4998.5
4998.49
4998.48
4998.47
4998.45
4998.43
4998.4
4998.38
4998.19
4997.48
4996.5
4995.41
4994.22
4992.9
4991.28
4989.21
4986.71
4983.88
4980.79
4977.31
4973.14
4968.08
4962.25
4955.63
4947
4934.41
4919.64
4905.74
4892.66
4879.44
4866.01
4853.04
4842.03
4834.18
4829.1
4826.45
4825.54
4823.93
4819.44
4812.1
4802.88
4792.36
4780.22
4766.25
4750.48
4733.08
4714.03
4693.36
4671.09
4647.32
4622.15
4595.69
4568.05
4539.36
4509.71
4479.21
4447.96
4416.03
4383.5
4350.46
4316.95
4283.05
4248.78
4214.21
4179.36
4144.27
4108.99
4073.52
4037.91
4002.15
3966.28
3930.3
3894.22
3858.06
3821.83
3785.56
3749.23
3712.86
3676.46
3640.02
3603.56
3567.07
3530.56
3494.02
3457.46
3420.88
3384.29
3347.69
3311.08
3274.46
3237.84
3201.21
3164.58
3127.94
3091.3
3054.65
3018
2981.35
2944.7
2908.04
2871.38
2834.73
2798.07
2761.42
2724.77
2688.12
2651.47
2614.83
2578.18
2541.53
2504.88
2468.22
2431.57
2394.91
2358.25
2321.59
2284.93
2248.27
2211.62
2174.97
2138.33
2101.69
2065.05
2028.42
1991.79
1955.16
1918.53
1881.9
1845.27
1808.63
1772
1735.35
1698.7
1662.05
1625.39
1588.73
1552.06
1515.39
1478.72
1442.05
1405.38
1368.71
1332.04
1295.37
1258.7
1222.03
1185.35
1148.68
1112.01
1075.33
1038.66
1001.99
965.322
928.655
891.99
855.325
818.663
782.003
745.347
708.692
672.041
635.395
598.755
562.122
525.498
488.881
452.272
415.671
379.08
342.497
305.923
269.357
232.8
196.261
159.741
123.166
86.3782
49.7455
15.9507
4999.42
4999.18
4999.44
4999.55
4999.51
4999.46
4999.45
4999.45
4999.45
4999.44
4999.43
4999.42
4999.41
4999.4
4999.39
4999.39
4999.38
4999.37
4999.36
4999.35
4999.34
4999.33
4999.32
4999.31
4999.3
4999.28
4999.26
4999.24
4999.22
4999.19
4999.16
4999.11
4999.07
4999.04
4999
4998.97
4998.94
4998.95
4998.95
4998.94
4998.93
4998.91
4998.88
4998.84
4998.82
4998.81
4998.8
4998.8
4998.79
4998.76
4998.72
4998.68
4998.65
4998.65
4998.65
4998.65
4998.64
4998.63
4998.62
4998.61
4998.6
4998.59
4998.59
4998.58
4998.57
4998.56
4998.56
4998.55
4998.55
4998.54
4998.54
4998.53
4998.53
4998.52
4998.52
4998.51
4998.5
4998.49
4998.48
4998.42
4998.26
4998.11
4998.14
4998.23
4998.27
4998.25
4998.22
4998.21
4998.21
4998.2
4998.19
4998.18
4998.17
4998.16
4998.15
4998.03
4996.09
4991.77
4986.26
4980.1
4972.9
4964.59
4955.07
4943.15
4923.42
4890.04
4856.56
4836.68
4827.45
4818.85
4808.68
4800.52
4794.44
4786.9
4775.59
4761.06
4744.24
4725.47
4704.75
4682.23
4658.04
4632.32
4605.22
4576.9
4547.49
4517.13
4485.94
4454.02
4421.47
4388.37
4354.79
4320.8
4286.45
4251.79
4216.86
4181.69
4146.32
4110.78
4075.09
4039.27
4003.35
3967.32
3931.21
3895.02
3858.76
3822.45
3786.09
3749.69
3713.26
3676.81
3640.33
3603.82
3567.3
3530.76
3494.2
3457.62
3421.02
3384.42
3347.8
3311.17
3274.54
3237.9
3201.27
3164.63
3127.99
3091.34
3054.7
3018.05
2981.39
2944.74
2908.08
2871.42
2834.76
2798.11
2761.45
2724.8
2688.15
2651.5
2614.85
2578.2
2541.54
2504.89
2468.23
2431.57
2394.91
2358.26
2321.6
2284.94
2248.28
2211.63
2174.98
2138.34
2101.69
2065.06
2028.42
1991.79
1955.15
1918.52
1881.89
1845.26
1808.62
1771.98
1735.33
1698.68
1662.03
1625.37
1588.71
1552.05
1515.38
1478.72
1442.05
1405.38
1368.71
1332.04
1295.37
1258.7
1222.02
1185.35
1148.68
1112.01
1075.33
1038.66
1001.99
965.323
928.655
891.988
855.322
818.658
781.997
745.338
708.682
672.031
635.384
598.743
562.107
525.476
488.852
452.234
415.622
379.015
342.415
305.82
269.227
232.638
196.055
159.482
122.838
85.9433
49.2303
15.7487
4999.42
4999.18
4999.43
4999.55
4999.51
4999.46
4999.45
4999.45
4999.44
4999.43
4999.42
4999.41
4999.41
4999.4
4999.39
4999.38
4999.37
4999.36
4999.35
4999.34
4999.33
4999.32
4999.31
4999.29
4999.28
4999.26
4999.25
4999.23
4999.2
4999.18
4999.15
4999.13
4999.1
4999.07
4999.04
4999.01
4998.99
4998.98
4998.97
4998.95
4998.93
4998.91
4998.89
4998.87
4998.85
4998.83
4998.82
4998.8
4998.78
4998.76
4998.74
4998.72
4998.69
4998.67
4998.65
4998.65
4998.64
4998.63
4998.62
4998.61
4998.61
4998.6
4998.59
4998.58
4998.57
4998.56
4998.55
4998.54
4998.53
4998.52
4998.51
4998.5
4998.49
4998.48
4998.47
4998.45
4998.43
4998.4
4998.36
4998.31
4998.27
4998.26
4998.26
4998.27
4998.27
4998.27
4998.27
4998.27
4998.27
4998.27
4998.28
4998.28
4998.28
4998.27
4998.27
4998.26
4998.16
4997.87
4997.85
4997.97
4998
4997.98
4997.98
4997.87
4996.2
4991.06
4980.6
4967.05
4955.35
4921.62
4871.16
4830.46
4810.99
4801.2
4789.49
4775.94
4761.01
4743.22
4722.33
4699.08
4673.98
4647.21
4618.97
4589.48
4558.91
4527.43
4495.17
4462.27
4428.8
4394.87
4360.54
4325.87
4290.91
4255.71
4220.29
4184.7
4148.95
4113.08
4077.09
4041.01
4004.86
3968.64
3932.35
3896.02
3859.64
3823.21
3786.76
3750.28
3713.78
3677.26
3640.71
3604.16
3567.59
3531
3494.41
3457.8
3421.19
3384.56
3347.93
3311.28
3274.64
3237.99
3201.35
3164.7
3128.05
3091.4
3054.75
3018.1
2981.44
2944.78
2908.12
2871.46
2834.8
2798.14
2761.48
2724.83
2688.17
2651.52
2614.86
2578.21
2541.55
2504.9
2468.24
2431.58
2394.93
2358.27
2321.61
2284.95
2248.3
2211.65
2175
2138.35
2101.71
2065.06
2028.42
1991.79
1955.15
1918.51
1881.88
1845.24
1808.6
1771.96
1735.31
1698.66
1662.01
1625.35
1588.7
1552.03
1515.37
1478.71
1442.04
1405.37
1368.7
1332.04
1295.37
1258.69
1222.02
1185.35
1148.68
1112.01
1075.33
1038.66
1001.99
965.32
928.65
891.981
855.313
818.647
781.983
745.321
708.663
672.009
635.358
598.712
562.07
525.432
488.799
452.17
415.544
378.921
342.3
305.681
269.061
232.439
195.821
159.209
122.513
85.5421
48.7758
15.5743
4999.41
4999.17
4999.43
4999.54
4999.51
4999.46
4999.44
4999.44
4999.44
4999.43
4999.42
4999.41
4999.4
4999.39
4999.38
4999.37
4999.36
4999.35
4999.34
4999.33
4999.32
4999.31
4999.29
4999.28
4999.27
4999.25
4999.23
4999.21
4999.19
4999.17
4999.15
4999.13
4999.1
4999.08
4999.05
4999.03
4999.01
4998.99
4998.97
4998.95
4998.94
4998.92
4998.9
4998.88
4998.86
4998.84
4998.82
4998.8
4998.79
4998.77
4998.75
4998.73
4998.71
4998.69
4998.68
4998.67
4998.66
4998.65
4998.63
4998.62
4998.61
4998.6
4998.59
4998.58
4998.57
4998.56
4998.55
4998.54
4998.53
4998.52
4998.51
4998.5
4998.49
4998.48
4998.46
4998.45
4998.43
4998.4
4998.38
4998.35
4998.31
4998.28
4998.27
4998.27
4998.26
4998.26
4998.25
4998.24
4998.23
4998.22
4998.21
4998.2
4998.19
4998.17
4998.15
4998.12
4998.1
4998.09
4998.08
4998.09
4998.09
4998.09
4998.09
4998.1
4998.02
4997.82
4997.73
4997.82
4996.87
4991.67
4981.95
4963.71
4938.29
4894.3
4840.9
4807.13
4787.52
4769.03
4747.28
4722.79
4695.95
4667.24
4637.11
4605.78
4573.49
4540.39
4506.66
4472.41
4437.73
4402.71
4367.42
4331.89
4296.17
4260.31
4224.31
4188.2
4152.01
4115.74
4079.41
4043.03
4006.61
3970.16
3933.67
3897.16
3860.63
3824.09
3787.52
3750.94
3714.36
3677.76
3641.15
3604.53
3567.91
3531.28
3494.65
3458.01
3421.37
3384.72
3348.07
3311.41
3274.75
3238.1
3201.44
3164.78
3128.13
3091.47
3054.81
3018.15
2981.48
2944.82
2908.16
2871.5
2834.84
2798.18
2761.52
2724.86
2688.2
2651.54
2614.89
2578.23
2541.57
2504.92
2468.26
2431.6
2394.94
2358.29
2321.63
2284.97
2248.32
2211.67
2175.02
2138.37
2101.72
2065.07
2028.43
1991.79
1955.14
1918.5
1881.86
1845.22
1808.58
1771.94
1735.29
1698.64
1661.99
1625.33
1588.68
1552.02
1515.36
1478.69
1442.03
1405.37
1368.7
1332.03
1295.36
1258.69
1222.02
1185.35
1148.68
1112.01
1075.33
1038.66
1001.99
965.314
928.641
891.97
855.299
818.63
781.963
745.298
708.636
671.977
635.321
598.669
562.02
525.374
488.731
452.09
415.45
378.811
342.172
305.531
268.887
232.238
195.59
158.946
122.211
85.1848
48.3831
15.4246
4999.41
4999.16
4999.42
4999.54
4999.5
4999.45
4999.44
4999.44
4999.43
4999.42
4999.41
4999.4
4999.4
4999.39
4999.38
4999.37
4999.36
4999.34
4999.33
4999.32
4999.31
4999.3
4999.28
4999.27
4999.25
4999.24
4999.22
4999.2
4999.19
4999.17
4999.15
4999.12
4999.1
4999.08
4999.06
4999.04
4999.02
4999
4998.98
4998.96
4998.94
4998.92
4998.9
4998.89
4998.87
4998.85
4998.83
4998.81
4998.79
4998.78
4998.76
4998.74
4998.72
4998.71
4998.69
4998.68
4998.67
4998.65
4998.64
4998.63
4998.62
4998.61
4998.59
4998.58
4998.57
4998.56
4998.55
4998.54
4998.53
4998.51
4998.5
4998.49
4998.48
4998.46
4998.45
4998.43
4998.42
4998.4
4998.38
4998.36
4998.34
4998.32
4998.31
4998.29
4998.29
4998.28
4998.27
4998.26
4998.25
4998.24
4998.23
4998.22
4998.2
4998.18
4998.16
4998.14
4998.1
4998.07
4998.05
4998.05
4998.04
4998.03
4998.01
4998
4998
4997.99
4997.99
4997.99
4997.97
4997.78
4996.96
4995.13
4989.49
4974.99
4947.3
4905.02
4856.2
4812.18
4781.43
4754.14
4724.59
4692.75
4659.54
4625.53
4590.81
4555.57
4519.91
4483.97
4447.8
4411.47
4375.02
4338.5
4301.92
4265.29
4228.64
4191.96
4155.27
4118.56
4081.86
4045.15
4008.45
3971.76
3935.06
3898.37
3861.69
3825
3788.32
3751.63
3714.95
3678.27
3641.59
3604.91
3568.24
3531.56
3494.9
3458.23
3421.56
3384.89
3348.22
3311.54
3274.87
3238.2
3201.53
3164.86
3128.2
3091.53
3054.86
3018.19
2981.52
2944.86
2908.19
2871.53
2834.87
2798.21
2761.55
2724.89
2688.23
2651.57
2614.91
2578.25
2541.6
2504.94
2468.28
2431.62
2394.96
2358.31
2321.65
2285
2248.34
2211.69
2175.03
2138.38
2101.73
2065.08
2028.43
1991.78
1955.14
1918.49
1881.85
1845.2
1808.56
1771.91
1735.26
1698.61
1661.96
1625.31
1588.66
1552
1515.34
1478.68
1442.02
1405.36
1368.69
1332.03
1295.36
1258.69
1222.02
1185.35
1148.68
1112
1075.33
1038.65
1001.98
965.305
928.63
891.956
855.282
818.61
781.939
745.271
708.604
671.941
635.28
598.621
561.964
525.31
488.657
452.005
415.352
378.699
342.044
305.385
268.72
232.05
195.378
158.711
121.948
84.8793
48.0532
15.2995
4999.41
4999.16
4999.42
4999.54
4999.5
4999.45
4999.43
4999.44
4999.43
4999.42
4999.41
4999.4
4999.39
4999.38
4999.37
4999.36
4999.35
4999.34
4999.33
4999.32
4999.3
4999.29
4999.28
4999.26
4999.25
4999.23
4999.22
4999.2
4999.18
4999.16
4999.14
4999.12
4999.1
4999.08
4999.06
4999.04
4999.02
4999
4998.98
4998.97
4998.95
4998.93
4998.91
4998.89
4998.87
4998.85
4998.84
4998.82
4998.8
4998.78
4998.77
4998.75
4998.73
4998.72
4998.7
4998.69
4998.67
4998.66
4998.65
4998.63
4998.62
4998.61
4998.6
4998.58
4998.57
4998.56
4998.55
4998.54
4998.53
4998.51
4998.5
4998.49
4998.47
4998.46
4998.44
4998.43
4998.41
4998.4
4998.38
4998.36
4998.34
4998.32
4998.31
4998.29
4998.28
4998.27
4998.26
4998.25
4998.23
4998.22
4998.21
4998.19
4998.18
4998.17
4998.15
4998.14
4998.12
4998.1
4998.09
4998.08
4998.06
4998.05
4998.03
4998.01
4997.99
4997.97
4997.96
4997.95
4997.93
4997.9
4997.77
4997.47
4996.69
4994.83
4990.43
4978.14
4945.76
4891.43
4837.24
4794.09
4758.53
4722.6
4685.49
4647.76
4609.96
4572.04
4534.11
4496.18
4458.32
4420.53
4382.83
4345.23
4307.72
4270.3
4232.96
4195.69
4158.49
4121.35
4084.27
4047.24
4010.26
3973.32
3936.41
3899.54
3862.7
3825.88
3789.08
3752.29
3715.52
3678.76
3642.02
3605.28
3568.56
3531.84
3495.14
3458.44
3421.74
3385.05
3348.36
3311.67
3274.99
3238.3
3201.62
3164.94
3128.26
3091.58
3054.9
3018.23
2981.55
2944.89
2908.22
2871.56
2834.89
2798.23
2761.58
2724.92
2688.26
2651.6
2614.94
2578.28
2541.62
2504.97
2468.31
2431.65
2394.99
2358.33
2321.67
2285.02
2248.36
2211.7
2175.05
2138.39
2101.74
2065.08
2028.43
1991.78
1955.13
1918.48
1881.83
1845.18
1808.54
1771.89
1735.24
1698.59
1661.94
1625.29
1588.64
1551.98
1515.33
1478.67
1442.01
1405.35
1368.69
1332.02
1295.36
1258.69
1222.02
1185.35
1148.67
1112
1075.33
1038.65
1001.97
965.295
928.617
891.94
855.264
818.589
781.915
745.242
708.572
671.904
635.238
598.573
561.91
525.248
488.586
451.924
415.261
378.595
341.926
305.253
268.572
231.885
195.197
158.512
121.728
84.6282
47.7852
15.1982
4999.4
4999.15
4999.41
4999.54
4999.5
4999.45
4999.43
4999.43
4999.43
4999.42
4999.41
4999.4
4999.39
4999.38
4999.37
4999.36
4999.35
4999.33
4999.32
4999.31
4999.3
4999.28
4999.27
4999.26
4999.24
4999.23
4999.21
4999.19
4999.18
4999.16
4999.14
4999.12
4999.1
4999.08
4999.06
4999.05
4999.03
4999.01
4998.99
4998.97
4998.95
4998.93
4998.91
4998.89
4998.88
4998.86
4998.84
4998.82
4998.8
4998.79
4998.77
4998.75
4998.74
4998.72
4998.71
4998.69
4998.68
4998.66
4998.65
4998.64
4998.62
4998.61
4998.6
4998.59
4998.57
4998.56
4998.55
4998.54
4998.52
4998.51
4998.5
4998.48
4998.47
4998.45
4998.44
4998.43
4998.41
4998.39
4998.38
4998.36
4998.35
4998.33
4998.32
4998.3
4998.29
4998.28
4998.26
4998.25
4998.24
4998.23
4998.21
4998.2
4998.18
4998.17
4998.15
4998.13
4998.11
4998.1
4998.08
4998.06
4998.05
4998.03
4998.02
4998
4997.99
4997.97
4997.96
4997.94
4997.93
4997.9
4997.86
4997.78
4997.57
4997.03
4995.66
4992.25
4984.19
4963.03
4913.42
4850.21
4798.62
4755.21
4713.07
4671.08
4629.52
4588.56
4548.08
4508.05
4468.41
4429.14
4390.18
4351.51
4313.09
4274.9
4236.9
4199.08
4161.41
4123.87
4086.44
4049.12
4011.88
3974.72
3937.62
3900.58
3863.59
3826.65
3789.75
3752.87
3716.03
3679.21
3642.4
3605.62
3568.85
3532.1
3495.36
3458.63
3421.91
3385.19
3348.48
3311.78
3275.08
3238.38
3201.69
3165
3128.31
3091.62
3054.93
3018.25
2981.58
2944.91
2908.24
2871.58
2834.92
2798.26
2761.6
2724.94
2688.29
2651.63
2614.97
2578.31
2541.65
2504.99
2468.33
2431.67
2395.01
2358.35
2321.7
2285.04
2248.38
2211.72
2175.06
2138.4
2101.74
2065.09
2028.43
1991.77
1955.12
1918.47
1881.81
1845.16
1808.52
1771.87
1735.22
1698.57
1661.92
1625.27
1588.62
1551.97
1515.31
1478.66
1442
1405.34
1368.68
1332.02
1295.35
1258.69
1222.02
1185.34
1148.67
1112
1075.32
1038.64
1001.96
965.284
928.605
891.926
855.247
818.569
781.892
745.217
708.543
671.871
635.2
598.531
561.862
525.193
488.525
451.855
415.183
378.508
341.829
305.144
268.451
231.752
195.051
158.354
121.555
84.4327
47.578
15.1196
4999.4
4999.15
4999.41
4999.53
4999.5
4999.44
4999.43
4999.43
4999.43
4999.42
4999.4
4999.39
4999.39
4999.38
4999.36
4999.35
4999.34
4999.33
4999.32
4999.31
4999.29
4999.28
4999.27
4999.25
4999.24
4999.22
4999.21
4999.19
4999.17
4999.16
4999.14
4999.12
4999.1
4999.08
4999.07
4999.05
4999.03
4999.01
4998.99
4998.97
4998.95
4998.93
4998.92
4998.9
4998.88
4998.86
4998.84
4998.83
4998.81
4998.79
4998.77
4998.76
4998.74
4998.73
4998.71
4998.7
4998.68
4998.67
4998.65
4998.64
4998.63
4998.61
4998.6
4998.59
4998.57
4998.56
4998.55
4998.54
4998.52
4998.51
4998.5
4998.48
4998.47
4998.45
4998.44
4998.42
4998.41
4998.39
4998.38
4998.36
4998.35
4998.33
4998.32
4998.3
4998.29
4998.27
4998.26
4998.25
4998.23
4998.22
4998.2
4998.19
4998.18
4998.16
4998.15
4998.13
4998.11
4998.1
4998.08
4998.07
4998.05
4998.04
4998.02
4998
4997.99
4997.97
4997.95
4997.93
4997.91
4997.9
4997.87
4997.83
4997.74
4997.54
4997.02
4995.74
4992.45
4983.64
4959.48
4905.61
4840.08
4786.12
4738.22
4692.13
4646.99
4603.07
4560.19
4518.2
4476.95
4436.35
4396.29
4356.69
4317.49
4278.65
4240.1
4201.81
4163.75
4125.89
4088.18
4050.61
4013.17
3975.83
3938.57
3901.4
3864.3
3827.27
3790.28
3753.34
3716.43
3679.56
3642.72
3605.89
3569.09
3532.31
3495.54
3458.79
3422.04
3385.31
3348.58
3311.86
3275.15
3238.44
3201.74
3165.04
3128.34
3091.64
3054.95
3018.27
2981.59
2944.92
2908.26
2871.59
2834.94
2798.28
2761.62
2724.97
2688.31
2651.66
2615
2578.34
2541.68
2505.02
2468.36
2431.7
2395.03
2358.37
2321.71
2285.05
2248.39
2211.73
2175.07
2138.41
2101.75
2065.09
2028.43
1991.77
1955.11
1918.46
1881.8
1845.15
1808.5
1771.85
1735.2
1698.55
1661.9
1625.26
1588.61
1551.96
1515.3
1478.65
1441.99
1405.34
1368.68
1332.02
1295.35
1258.68
1222.01
1185.34
1148.67
1111.99
1075.31
1038.64
1001.96
965.275
928.594
891.913
855.232
818.552
781.873
745.196
708.52
671.845
635.171
598.498
561.825
525.152
488.478
451.802
415.124
378.442
341.755
305.063
268.362
231.654
194.945
158.239
121.43
84.293
47.4308
15.0639
4999.4
4999.15
4999.41
4999.53
4999.49
4999.44
4999.43
4999.43
4999.42
4999.41
4999.4
4999.39
4999.38
4999.37
4999.36
4999.35
4999.34
4999.33
4999.32
4999.31
4999.29
4999.28
4999.27
4999.25
4999.24
4999.22
4999.21
4999.19
4999.17
4999.16
4999.14
4999.12
4999.1
4999.08
4999.07
4999.05
4999.03
4999.01
4998.99
4998.97
4998.95
4998.94
4998.92
4998.9
4998.88
4998.86
4998.84
4998.83
4998.81
4998.79
4998.78
4998.76
4998.74
4998.73
4998.71
4998.7
4998.68
4998.67
4998.65
4998.64
4998.63
4998.61
4998.6
4998.59
4998.57
4998.56
4998.55
4998.53
4998.52
4998.51
4998.49
4998.48
4998.47
4998.45
4998.44
4998.42
4998.41
4998.39
4998.38
4998.36
4998.35
4998.33
4998.32
4998.3
4998.29
4998.28
4998.26
4998.25
4998.24
4998.22
4998.21
4998.19
4998.18
4998.16
4998.15
4998.13
4998.11
4998.1
4998.08
4998.07
4998.05
4998.03
4998.02
4998
4997.98
4997.97
4997.95
4997.93
4997.91
4997.89
4997.87
4997.84
4997.79
4997.67
4997.39
4996.7
4994.93
4990.32
4976.97
4937.25
4870.4
4808.41
4755.87
4706.78
4659.25
4613.17
4568.58
4525.18
4482.79
4441.23
4400.39
4360.16
4320.43
4281.14
4242.22
4203.63
4165.3
4127.21
4089.32
4051.6
4014.01
3976.55
3939.2
3901.95
3864.77
3827.68
3790.64
3753.65
3716.71
3679.8
3642.93
3606.08
3569.26
3532.45
3495.66
3458.89
3422.13
3385.38
3348.64
3311.91
3275.19
3238.48
3201.77
3165.06
3128.36
3091.66
3054.97
3018.28
2981.61
2944.93
2908.27
2871.61
2834.95
2798.3
2761.64
2724.99
2688.33
2651.68
2615.02
2578.36
2541.7
2505.04
2468.38
2431.71
2395.05
2358.39
2321.72
2285.06
2248.4
2211.73
2175.07
2138.41
2101.75
2065.09
2028.42
1991.77
1955.11
1918.45
1881.8
1845.14
1808.49
1771.84
1735.19
1698.54
1661.89
1625.25
1588.6
1551.95
1515.3
1478.65
1441.99
1405.33
1368.67
1332.01
1295.35
1258.68
1222.01
1185.34
1148.66
1111.99
1075.31
1038.63
1001.95
965.267
928.586
891.904
855.222
818.541
781.861
745.183
708.505
671.829
635.153
598.478
561.802
525.127
488.449
451.77
415.088
378.402
341.711
305.013
268.308
231.595
194.88
158.17
121.355
84.2093
47.3429
15.0305
4999.4
4999.15
4999.41
4999.53
4999.49
4999.44
4999.43
4999.43
4999.42
4999.41
4999.4
4999.39
4999.38
4999.37
4999.36
4999.35
4999.34
4999.33
4999.32
4999.3
4999.29
4999.28
4999.26
4999.25
4999.24
4999.22
4999.21
4999.19
4999.17
4999.16
4999.14
4999.12
4999.1
4999.08
4999.07
4999.05
4999.03
4999.01
4998.99
4998.97
4998.95
4998.94
4998.92
4998.9
4998.88
4998.86
4998.85
4998.83
4998.81
4998.79
4998.78
4998.76
4998.74
4998.73
4998.71
4998.7
4998.68
4998.67
4998.66
4998.64
4998.63
4998.61
4998.6
4998.59
4998.57
4998.56
4998.55
4998.53
4998.52
4998.51
4998.49
4998.48
4998.47
4998.45
4998.44
4998.42
4998.41
4998.39
4998.38
4998.36
4998.35
4998.33
4998.32
4998.3
4998.29
4998.28
4998.26
4998.25
4998.23
4998.22
4998.2
4998.19
4998.17
4998.16
4998.14
4998.13
4998.11
4998.1
4998.08
4998.07
4998.05
4998.03
4998.02
4998
4997.98
4997.97
4997.95
4997.93
4997.91
4997.89
4997.87
4997.84
4997.79
4997.7
4997.46
4996.89
4995.46
4991.78
4981.24
4947.57
4882.51
4817.48
4762.73
4712.46
4663.97
4617.08
4571.8
4527.86
4485.02
4443.1
4401.96
4361.47
4321.54
4282.08
4243.03
4204.32
4165.9
4127.73
4089.76
4051.97
4014.34
3976.84
3939.45
3902.16
3864.96
3827.84
3790.78
3753.78
3716.82
3679.9
3643.01
3606.15
3569.32
3532.51
3495.71
3458.93
3422.17
3385.41
3348.67
3311.93
3275.21
3238.49
3201.78
3165.07
3128.37
3091.67
3054.98
3018.29
2981.62
2944.94
2908.28
2871.62
2834.96
2798.3
2761.65
2725
2688.34
2651.69
2615.03
2578.37
2541.71
2505.05
2468.39
2431.72
2395.06
2358.4
2321.73
2285.07
2248.4
2211.74
2175.07
2138.41
2101.75
2065.08
2028.42
1991.76
1955.11
1918.45
1881.79
1845.14
1808.49
1771.84
1735.19
1698.54
1661.89
1625.24
1588.59
1551.94
1515.29
1478.64
1441.99
1405.33
1368.67
1332.01
1295.35
1258.68
1222.01
1185.34
1148.66
1111.98
1075.31
1038.63
1001.94
965.263
928.581
891.899
855.218
818.537
781.857
745.179
708.501
671.825
635.148
598.472
561.796
525.119
488.441
451.76
415.076
378.389
341.696
304.997
268.289
231.575
194.858
158.147
121.33
84.1811
47.3134
15.0193
4999.4
4999.15
4999.41
4999.53
4999.49
4999.44
4999.43
4999.43
4999.42
4999.41
4999.4
4999.39
4999.38
4999.37
4999.36
4999.35
4999.34
4999.33
4999.32
4999.31
4999.29
4999.28
4999.27
4999.25
4999.24
4999.22
4999.21
4999.19
4999.17
4999.16
4999.14
4999.12
4999.1
4999.08
4999.07
4999.05
4999.03
4999.01
4998.99
4998.97
4998.95
4998.94
4998.92
4998.9
4998.88
4998.86
4998.84
4998.83
4998.81
4998.79
4998.78
4998.76
4998.74
4998.73
4998.71
4998.7
4998.68
4998.67
4998.65
4998.64
4998.63
4998.61
4998.6
4998.59
4998.57
4998.56
4998.55
4998.53
4998.52
4998.51
4998.49
4998.48
4998.47
4998.45
4998.44
4998.42
4998.41
4998.39
4998.38
4998.36
4998.35
4998.33
4998.32
4998.3
4998.29
4998.28
4998.26
4998.25
4998.24
4998.22
4998.21
4998.19
4998.18
4998.16
4998.15
4998.13
4998.11
4998.1
4998.08
4998.07
4998.05
4998.03
4998.02
4998
4997.98
4997.97
4997.95
4997.93
4997.91
4997.89
4997.87
4997.84
4997.79
4997.67
4997.41
4996.76
4995.12
4990.84
4978.37
4940.31
4873.65
4810.63
4757.48
4708.1
4660.34
4614.06
4569.31
4525.79
4483.29
4441.66
4400.75
4360.47
4320.7
4281.38
4242.44
4203.82
4165.47
4127.36
4089.45
4051.71
4014.12
3976.65
3939.29
3902.03
3864.85
3827.75
3790.7
3753.71
3716.76
3679.85
3642.97
3606.12
3569.29
3532.48
3495.69
3458.91
3422.15
3385.39
3348.65
3311.92
3275.2
3238.48
3201.77
3165.07
3128.37
3091.68
3054.99
3018.3
2981.62
2944.95
2908.28
2871.62
2834.96
2798.3
2761.65
2725
2688.34
2651.69
2615.03
2578.37
2541.71
2505.05
2468.39
2431.73
2395.06
2358.4
2321.73
2285.07
2248.4
2211.74
2175.07
2138.41
2101.74
2065.08
2028.42
1991.76
1955.11
1918.45
1881.8
1845.14
1808.49
1771.84
1735.19
1698.54
1661.89
1625.24
1588.6
1551.95
1515.3
1478.64
1441.99
1405.33
1368.67
1332.01
1295.34
1258.68
1222.01
1185.33
1148.66
1111.98
1075.3
1038.62
1001.94
965.261
928.581
891.9
855.22
818.54
781.862
745.184
708.508
671.832
635.157
598.482
561.806
525.13
488.453
451.773
415.09
378.404
341.712
305.014
268.308
231.595
194.88
158.169
121.355
84.2088
47.3425
15.0304
4999.4
4999.15
4999.41
4999.53
4999.5
4999.44
4999.43
4999.43
4999.43
4999.42
4999.4
4999.39
4999.39
4999.38
4999.36
4999.35
4999.34
4999.33
4999.32
4999.31
4999.29
4999.28
4999.27
4999.25
4999.24
4999.22
4999.21
4999.19
4999.17
4999.16
4999.14
4999.12
4999.1
4999.08
4999.07
4999.05
4999.03
4999.01
4998.99
4998.97
4998.95
4998.93
4998.92
4998.9
4998.88
4998.86
4998.84
4998.83
4998.81
4998.79
4998.77
4998.76
4998.74
4998.73
4998.71
4998.7
4998.68
4998.67
4998.65
4998.64
4998.63
4998.61
4998.6
4998.59
4998.57
4998.56
4998.55
4998.53
4998.52
4998.51
4998.5
4998.48
4998.47
4998.45
4998.44
4998.42
4998.41
4998.39
4998.38
4998.36
4998.35
4998.33
4998.32
4998.3
4998.29
4998.27
4998.26
4998.25
4998.23
4998.22
4998.2
4998.19
4998.18
4998.16
4998.15
4998.13
4998.11
4998.1
4998.08
4998.07
4998.05
4998.04
4998.02
4998
4997.99
4997.97
4997.95
4997.93
4997.91
4997.89
4997.87
4997.83
4997.75
4997.57
4997.1
4995.94
4993.03
4985.21
4963.72
4912.53
4845.52
4789.71
4740.99
4694.42
4648.9
4604.64
4561.5
4519.3
4477.88
4437.13
4396.96
4357.27
4318.01
4279.1
4240.51
4202.18
4164.08
4126.18
4088.44
4050.84
4013.37
3976.01
3938.74
3901.56
3864.45
3827.4
3790.4
3753.44
3716.53
3679.65
3642.8
3605.97
3569.16
3532.37
3495.6
3458.83
3422.08
3385.34
3348.6
3311.88
3275.17
3238.46
3201.76
3165.06
3128.37
3091.67
3054.99
3018.3
2981.62
2944.95
2908.28
2871.61
2834.95
2798.29
2761.64
2724.98
2688.33
2651.67
2615.02
2578.36
2541.71
2505.05
2468.39
2431.72
2395.06
2358.4
2321.73
2285.06
2248.4
2211.73
2175.07
2138.4
2101.74
2065.08
2028.42