/*--------------------------------*- C++ -*----------------------------------*\
| =========                 |                                                 |
| \\      /  F ield         | OpenFOAM: The Open Source CFD Toolbox           |
|  \\    /   O peration     | Version:  2406                                  |
|   \\  /    A nd           | Website:  www.openfoam.com                      |
|    \\/     M anipulation  |                                                 |
\*---------------------------------------------------------------------------*/
FoamFile
{
    version     2.0;
    format      ascii;
    arch        "LSB;label=32;scalar=64";
    class       surfaceScalarField;
    location    "0.15";
    object      phi;
}
// * * * * * * * * * * * * * * * * * * * * * * * * * * * * * * * * * * * * * //

dimensions      [0 3 -1 0 0 0 0];

oriented        oriented;

internalField   nonuniform List<scalar> 
12225
(
4.4099e-07
5.23211e-09
4.25614e-07
1.53761e-08
4.08795e-07
1.68193e-08
3.94202e-07
1.4593e-08
3.79961e-07
1.42407e-08
3.64654e-07
1.53066e-08
3.48764e-07
1.58896e-08
3.33083e-07
1.56808e-08
3.17882e-07
1.52005e-08
3.03088e-07
1.47932e-08
2.88646e-07
1.44412e-08
2.74581e-07
1.40636e-08
2.60915e-07
1.36643e-08
2.47622e-07
1.32915e-08
2.3464e-07
1.29807e-08
2.21891e-07
1.27472e-08
2.09289e-07
1.2601e-08
1.96733e-07
1.25539e-08
1.84114e-07
1.26172e-08
1.71314e-07
1.27988e-08
1.5821e-07
1.31021e-08
1.44683e-07
1.35257e-08
1.30619e-07
1.40631e-08
1.15917e-07
1.47011e-08
1.00493e-07
1.54222e-08
8.4274e-08
1.62177e-08
6.7113e-08
1.71597e-08
4.8515e-08
1.85966e-08
2.71528e-08
2.13605e-08
1.26949e-10
2.70243e-08
2.58087e-09
-2.45393e-09
2.92835e-09
-3.47477e-10
3.47904e-09
-5.50689e-10
3.17462e-09
3.04413e-10
2.76146e-09
4.13158e-10
2.12325e-09
6.38212e-10
1.63957e-09
4.83678e-10
1.39765e-09
2.41925e-10
1.36479e-09
3.28538e-11
1.39667e-09
-3.1877e-11
1.39407e-09
2.5997e-12
1.32621e-09
6.78595e-11
1.22628e-09
9.99373e-11
1.13192e-09
9.43606e-11
1.06183e-09
7.00867e-11
1.01779e-09
4.40503e-11
9.91903e-10
2.58853e-11
9.73914e-10
1.79913e-11
9.54503e-10
1.94135e-11
9.39564e-10
1.49415e-11
9.2026e-10
1.9306e-11
9.39461e-10
-1.91982e-11
1.07201e-09
-1.32541e-10
1.29927e-09
-2.27267e-10
1.52939e-09
-2.30122e-10
1.70575e-09
-1.7636e-10
1.83237e-09
-1.26628e-10
1.93591e-09
-1.03541e-10
2.04971e-09
-1.13799e-10
2.2086e-09
-1.58892e-10
2.43549e-09
-2.26895e-10
2.72875e-09
-2.93256e-10
3.06826e-09
-3.39509e-10
3.43309e-09
-3.64825e-10
3.81414e-09
-3.81039e-10
4.21538e-09
-4.01237e-10
4.64797e-09
-4.32589e-10
5.12352e-09
-4.75535e-10
5.65042e-09
-5.26898e-10
6.23449e-09
-5.8405e-10
6.88145e-09
-6.46942e-10
7.59805e-09
-7.16586e-10
8.3897e-09
-7.91636e-10
9.25607e-09
-8.66356e-10
1.01879e-08
-9.31877e-10
1.11681e-08
-9.80198e-10
1.21774e-08
-1.00937e-09
1.32032e-08
-1.02586e-09
1.42486e-08
-1.04549e-09
1.53328e-08
-1.0843e-09
1.64769e-08
-1.14418e-09
1.76959e-08
-1.21897e-09
1.89982e-08
-1.30229e-09
2.03827e-08
-1.38445e-09
2.18342e-08
-1.4514e-09
2.33279e-08
-1.49363e-09
2.48423e-08
-1.51431e-09
2.63681e-08
-1.52568e-09
2.7906e-08
-1.53782e-09
2.94565e-08
-1.55046e-09
3.10117e-08
-1.55512e-09
3.25554e-08
-1.54376e-09
3.40719e-08
-1.51648e-09
3.55551e-08
-1.48321e-09
3.70156e-08
-1.46049e-09
3.84755e-08
-1.45992e-09
3.99525e-08
-1.47703e-09
4.14484e-08
-1.49587e-09
4.29509e-08
-1.50259e-09
4.44432e-08
-1.49234e-09
4.59105e-08
-1.46737e-09
4.73454e-08
-1.43496e-09
4.87504e-08
-1.40504e-09
5.01363e-08
-1.38599e-09
5.15179e-08
-1.38178e-09
5.29094e-08
-1.39161e-09
5.43202e-08
-1.41092e-09
5.57519e-08
-1.43174e-09
5.71961e-08
-1.4442e-09
5.86387e-08
-1.44267e-09
6.00663e-08
-1.42773e-09
6.14694e-08
-1.40315e-09
6.28398e-08
-1.37055e-09
6.41696e-08
-1.32983e-09
6.54501e-08
-1.28027e-09
6.6673e-08
-1.22268e-09
6.78311e-08
-1.15812e-09
6.89198e-08
-1.08863e-09
6.99356e-08
-1.01579e-09
7.08771e-08
-9.41327e-10
7.1744e-08
-8.66798e-10
7.25375e-08
-7.93583e-10
7.32599e-08
-7.22586e-10
7.39146e-08
-6.54658e-10
7.45054e-08
-5.90637e-10
7.50363e-08
-5.30884e-10
7.55116e-08
-4.75271e-10
7.59357e-08
-4.24059e-10
7.63132e-08
-3.77378e-10
7.66484e-08
-3.35035e-10
7.69452e-08
-2.96678e-10
7.72073e-08
-2.6213e-10
7.74384e-08
-2.3119e-10
7.76418e-08
-2.03592e-10
7.78207e-08
-1.7895e-10
7.79778e-08
-1.57012e-10
7.81155e-08
-1.37545e-10
7.82359e-08
-1.20439e-10
7.83413e-08
-1.0541e-10
7.84335e-08
-9.21823e-11
7.85142e-08
-8.06445e-11
7.85847e-08
-7.05345e-11
7.86462e-08
-6.15589e-11
7.86998e-08
-5.37706e-11
7.87467e-08
-4.6914e-11
7.87876e-08
-4.0818e-11
7.88232e-08
-3.54347e-11
7.88542e-08
-3.07561e-11
7.8881e-08
-2.67287e-11
7.89043e-08
-2.32262e-11
7.89245e-08
-2.01495e-11
7.8942e-08
-1.75248e-11
7.89574e-08
-1.53363e-11
7.89709e-08
-1.35411e-11
7.89827e-08
-1.18249e-11
7.8993e-08
-1.04495e-11
7.9002e-08
-9.17453e-12
7.90098e-08
-7.99043e-12
7.90166e-08
-6.93888e-12
7.90225e-08
-6.01888e-12
7.90276e-08
-5.20707e-12
7.9032e-08
-4.48867e-12
7.90359e-08
-3.87557e-12
7.90391e-08
-3.31552e-12
7.90419e-08
-2.80685e-12
7.90443e-08
-2.39284e-12
7.90463e-08
-2.09024e-12
7.90481e-08
-1.84206e-12
7.90496e-08
-1.62687e-12
7.90509e-08
-1.46885e-12
7.90522e-08
-1.37643e-12
7.90534e-08
-1.25337e-12
7.90544e-08
-1.11344e-12
7.90554e-08
-9.34183e-13
7.90562e-08
-8.04502e-13
7.90569e-08
-7.04421e-13
7.90575e-08
-6.22117e-13
7.90581e-08
-5.50301e-13
7.90585e-08
-5.02943e-13
7.9059e-08
-5.10494e-13
7.90593e-08
-4.37674e-13
7.90596e-08
-3.06922e-13
7.90599e-08
-2.57122e-13
7.906e-08
-1.54163e-13
7.90602e-08
-1.67401e-13
7.90606e-08
-3.53216e-13
7.9061e-08
-4.0164e-13
7.90614e-08
-3.34305e-13
7.90617e-08
-2.72739e-13
7.90619e-08
-2.23021e-13
7.90622e-08
-1.79001e-13
7.90624e-08
-1.50165e-13
7.90626e-08
-9.50703e-14
7.90627e-08
-2.77353e-14
7.90627e-08
5.75711e-14
7.90627e-08
1.43249e-13
7.90624e-08
2.95157e-13
7.9062e-08
4.84748e-13
7.90616e-08
4.87582e-13
7.90612e-08
3.9633e-13
7.9061e-08
3.2027e-13
7.90608e-08
2.80701e-13
7.90605e-08
3.34291e-13
7.90602e-08
3.64479e-13
7.90599e-08
3.47744e-13
7.90596e-08
3.36617e-13
7.90593e-08
3.39031e-13
7.9059e-08
3.04815e-13
7.90588e-08
2.01069e-13
7.90586e-08
1.53885e-13
7.90585e-08
1.62119e-13
7.90583e-08
1.89438e-13
7.90581e-08
2.26123e-13
7.90579e-08
2.70355e-13
7.90577e-08
3.29999e-13
7.90573e-08
3.99399e-13
7.9057e-08
4.70582e-13
7.90565e-08
5.37902e-13
7.9056e-08
6.07722e-13
7.90554e-08
6.70787e-13
7.90547e-08
7.10191e-13
7.9054e-08
7.19465e-13
7.90532e-08
8.10313e-13
7.90522e-08
1.06126e-12
7.90509e-08
1.29262e-12
7.90495e-08
1.45511e-12
7.90478e-08
1.67196e-12
7.90459e-08
1.96625e-12
7.90436e-08
2.31949e-12
7.90409e-08
2.73996e-12
7.90376e-08
3.25086e-12
7.90337e-08
3.94698e-12
7.90289e-08
4.72636e-12
7.90231e-08
5.80247e-12
7.90161e-08
7.0024e-12
7.90075e-08
8.5188e-12
7.8997e-08
1.04916e-11
7.8984e-08
1.29539e-11
7.8968e-08
1.60183e-11
7.89481e-08
1.98563e-11
7.89233e-08
2.46878e-11
7.88926e-08
3.07665e-11
7.88541e-08
3.84246e-11
7.8806e-08
4.8074e-11
7.87459e-08
6.01181e-11
7.8671e-08
7.48825e-11
7.85782e-08
9.27474e-11
7.84648e-08
1.13394e-10
7.83306e-08
1.34275e-10
1.42197e-10
4.73018e-07
6.44484e-10
4.83676e-07
4.71824e-09
4.91393e-07
9.10199e-09
4.94274e-07
1.17113e-08
4.95676e-07
1.28385e-08
4.97019e-07
1.39622e-08
4.97551e-07
1.53573e-08
4.96635e-07
1.65953e-08
4.94302e-07
1.75311e-08
4.90796e-07
1.82977e-08
4.86227e-07
1.90074e-08
4.80608e-07
1.96802e-08
4.73948e-07
2.03209e-08
4.66276e-07
2.09598e-08
4.57614e-07
2.16396e-08
4.47959e-07
2.23988e-08
4.37284e-07
2.32718e-08
4.2554e-07
2.42946e-08
4.12646e-07
2.55072e-08
3.98488e-07
2.69539e-08
3.82901e-07
2.86856e-08
3.65659e-07
3.07649e-08
3.46443e-07
3.32759e-08
3.248e-07
3.63406e-08
3.00068e-07
4.01507e-08
2.71261e-07
4.50225e-08
2.36893e-07
5.15245e-08
1.9483e-07
6.06557e-08
1.41363e-07
7.48244e-08
7.3806e-08
9.45799e-08
7.05723e-09
6.42934e-08
2.84578e-09
3.86396e-09
2.99614e-09
-7.01113e-10
2.31995e-09
9.80554e-10
1.21432e-09
1.51877e-09
8.98017e-10
9.54503e-10
9.02194e-10
4.79497e-10
1.28145e-09
-1.37333e-10
1.78543e-09
-4.71129e-10
2.14954e-09
-3.95984e-10
2.31286e-09
-1.60724e-10
2.26891e-09
1.11802e-10
2.10779e-09
2.61053e-10
1.89474e-09
3.07396e-10
1.68927e-09
2.75546e-10
1.53986e-09
1.93446e-10
1.46317e-09
1.0256e-10
1.46476e-09
1.63953e-11
1.51491e-09
-3.07542e-11
1.69062e-09
-1.60778e-10
1.83619e-09
-1.26274e-10
1.88691e-09
-6.99369e-11
2.26584e-09
-5.11482e-10
2.92834e-09
-8.89766e-10
3.48212e-09
-7.83918e-10
3.86713e-09
-5.61381e-10
4.18937e-09
-4.48881e-10
4.50255e-09
-4.16742e-10
4.86074e-09
-4.72002e-10
5.33288e-09
-6.31054e-10
5.97435e-09
-8.68372e-10
6.76824e-09
-1.08716e-09
7.66163e-09
-1.23291e-09
8.61609e-09
-1.31929e-09
9.62871e-09
-1.39366e-09
1.07212e-08
-1.49379e-09
1.19223e-08
-1.63361e-09
1.32535e-08
-1.80681e-09
1.47253e-08
-1.99869e-09
1.63416e-08
-2.20048e-09
1.81096e-08
-2.41497e-09
2.0043e-08
-2.65e-09
2.21569e-08
-2.90552e-09
2.4458e-08
-3.16745e-09
2.69388e-08
-3.41261e-09
2.95772e-08
-3.6185e-09
3.23437e-08
-3.77576e-09
3.5214e-08
-3.89596e-09
3.81883e-08
-4.01974e-09
4.13016e-08
-4.19742e-09
4.45862e-08
-4.42875e-09
4.80534e-08
-4.68626e-09
5.17164e-08
-4.96534e-09
5.55818e-08
-5.2499e-09
5.96262e-08
-5.49598e-09
6.38002e-08
-5.66778e-09
6.806e-08
-5.77428e-09
7.23917e-08
-5.85753e-09
7.68043e-08
-5.95053e-09
8.13031e-08
-6.04929e-09
8.58684e-08
-6.12039e-09
9.04564e-08
-6.13178e-09
9.50184e-08
-6.07847e-09
9.95195e-08
-5.98434e-09
1.03957e-07
-5.8981e-09
1.0837e-07
-5.87279e-09
1.12796e-07
-5.90331e-09
1.1723e-07
-5.93013e-09
1.21636e-07
-5.90811e-09
1.25968e-07
-5.82436e-09
1.30188e-07
-5.68753e-09
1.34274e-07
-5.52003e-09
1.38222e-07
-5.35304e-09
1.42052e-07
-5.21599e-09
1.45794e-07
-5.12393e-09
1.49478e-07
-5.0752e-09
1.53126e-07
-5.05946e-09
1.56747e-07
-5.05238e-09
1.60324e-07
-5.02127e-09
1.63826e-07
-4.94473e-09
1.67228e-07
-4.82939e-09
1.70517e-07
-4.69129e-09
1.73685e-07
-4.53865e-09
1.76722e-07
-4.3669e-09
1.79613e-07
-4.17214e-09
1.82346e-07
-3.95511e-09
1.84909e-07
-3.72159e-09
1.87297e-07
-3.47652e-09
1.89506e-07
-3.2253e-09
1.91537e-07
-2.97265e-09
1.93394e-07
-2.72327e-09
1.95082e-07
-2.48114e-09
1.96608e-07
-2.24922e-09
1.97983e-07
-2.02962e-09
1.99216e-07
-1.82403e-09
2.00319e-07
-1.63326e-09
2.01301e-07
-1.45769e-09
2.02174e-07
-1.29713e-09
2.02948e-07
-1.15126e-09
2.03632e-07
-1.01927e-09
2.04236e-07
-9.00396e-10
2.04768e-07
-7.93972e-10
2.05236e-07
-6.99078e-10
2.05646e-07
-6.14674e-10
2.06007e-07
-5.39613e-10
2.06323e-07
-4.7305e-10
2.066e-07
-4.14096e-10
2.06842e-07
-3.62197e-10
2.07053e-07
-3.16643e-10
2.07238e-07
-2.76643e-10
2.07399e-07
-2.41584e-10
2.07539e-07
-2.10854e-10
2.07661e-07
-1.84041e-10
2.07768e-07
-1.60641e-10
2.07862e-07
-1.40086e-10
2.07943e-07
-1.22118e-10
2.08014e-07
-1.0633e-10
2.08075e-07
-9.25363e-11
2.08128e-07
-8.05837e-11
2.08175e-07
-6.99585e-11
2.08215e-07
-6.07626e-11
2.0825e-07
-5.26465e-11
2.08281e-07
-4.58424e-11
2.08308e-07
-3.99555e-11
2.08331e-07
-3.52599e-11
2.08352e-07
-3.0736e-11
2.08369e-07
-2.67199e-11
2.08384e-07
-2.32333e-11
2.08398e-07
-2.04032e-11
2.0841e-07
-1.77704e-11
2.0842e-07
-1.54501e-11
2.08429e-07
-1.33883e-11
2.08437e-07
-1.15513e-11
2.08444e-07
-9.99288e-12
2.08449e-07
-8.58258e-12
2.08454e-07
-7.25522e-12
2.08459e-07
-6.27648e-12
2.08462e-07
-5.49254e-12
2.08465e-07
-4.77423e-12
2.08468e-07
-4.28972e-12
2.08471e-07
-3.95488e-12
2.08473e-07
-3.76564e-12
2.08475e-07
-3.24789e-12
2.08477e-07
-2.80477e-12
2.08479e-07
-2.48756e-12
2.0848e-07
-2.23189e-12
2.08482e-07
-2.01507e-12
2.08483e-07
-1.83391e-12
2.08484e-07
-1.69268e-12
2.08485e-07
-1.55483e-12
2.08486e-07
-1.39026e-12
2.08486e-07
-1.19136e-12
2.08487e-07
-9.48742e-13
2.08488e-07
-8.81775e-13
2.08488e-07
-9.01124e-13
2.08489e-07
-8.68188e-13
2.08489e-07
-8.65077e-13
2.0849e-07
-8.23429e-13
2.0849e-07
-7.36842e-13
2.08491e-07
-6.25003e-13
2.08491e-07
-4.92964e-13
2.08491e-07
-3.27886e-13
2.08491e-07
-2.56493e-13
2.08492e-07
-1.35667e-13
2.08492e-07
-1.21775e-15
2.08492e-07
1.45518e-13
2.08492e-07
3.14592e-13
2.08492e-07
4.83781e-13
2.08492e-07
5.07505e-13
2.08491e-07
5.19961e-13
2.08491e-07
3.71727e-13
2.08491e-07
4.23539e-13
2.08491e-07
4.99231e-13
2.08491e-07
5.37963e-13
2.08491e-07
5.70109e-13
2.0849e-07
5.78159e-13
2.0849e-07
5.4366e-13
2.0849e-07
4.51248e-13
2.08489e-07
4.59125e-13
2.08489e-07
4.34477e-13
2.08489e-07
4.50488e-13
2.08488e-07
5.70919e-13
2.08488e-07
6.50432e-13
2.08487e-07
7.7149e-13
2.08487e-07
9.32381e-13
2.08486e-07
1.10763e-12
2.08485e-07
1.31019e-12
2.08484e-07
1.52057e-12
2.08483e-07
1.76122e-12
2.08482e-07
2.0009e-12
2.0848e-07
2.21405e-12
2.08479e-07
2.46864e-12
2.08476e-07
2.97355e-12
2.08474e-07
3.71211e-12
2.08471e-07
4.49418e-12
2.08467e-07
5.2982e-12
2.08462e-07
6.2135e-12
2.08457e-07
7.318e-12
2.0845e-07
8.68724e-12
2.08443e-07
1.03657e-11
2.08434e-07
1.22822e-11
2.08423e-07
1.45201e-11
2.0841e-07
1.73918e-11
2.08395e-07
2.08063e-11
2.08377e-07
2.48903e-11
2.08356e-07
2.98787e-11
2.0833e-07
3.58995e-11
2.083e-07
4.32039e-11
2.08264e-07
5.21114e-11
2.08221e-07
6.27722e-11
2.0817e-07
7.57885e-11
2.08109e-07
9.14279e-11
2.08037e-07
1.10097e-10
2.07953e-07
1.32295e-10
2.07855e-07
1.58255e-10
2.07742e-07
1.87867e-10
2.07614e-07
2.20538e-10
2.07474e-07
2.5351e-10
2.07328e-07
2.79695e-10
2.85654e-10
4.71541e-07
8.85102e-10
4.72427e-07
3.83226e-09
4.7522e-07
6.30821e-09
4.78912e-07
8.01979e-09
4.82423e-07
9.32666e-09
4.85745e-07
1.06397e-08
4.89053e-07
1.20483e-08
4.92231e-07
1.34162e-08
4.95092e-07
1.46686e-08
4.97534e-07
1.58531e-08
4.99502e-07
1.70383e-08
5.00926e-07
1.8254e-08
5.01733e-07
1.95123e-08
5.01855e-07
2.08354e-08
5.01234e-07
2.22579e-08
4.99812e-07
2.38185e-08
4.97524e-07
2.55577e-08
4.94297e-07
2.75199e-08
4.90045e-07
2.9757e-08
4.84667e-07
3.23291e-08
4.78043e-07
3.53077e-08
4.70027e-07
3.8779e-08
4.60452e-07
4.2849e-08
4.49139e-07
4.76514e-08
4.35933e-07
5.33546e-08
4.20785e-07
6.01682e-08
4.03971e-07
6.83364e-08
3.86523e-07
7.81013e-08
3.71758e-07
8.95867e-08
3.63456e-07
1.02879e-07
3.10544e-07
1.17203e-07
2.05611e-07
1.08795e-07
1.09881e-07
9.50265e-08
3.71934e-08
7.36663e-08
2.69444e-09
3.60175e-08
-1.32999e-09
4.97883e-09
1.32232e-09
-2.17287e-09
2.25202e-09
-1.06705e-09
2.1805e-09
-3.996e-10
2.02719e-09
-2.42655e-10
2.08673e-09
-2.20228e-10
2.32785e-09
-1.29312e-10
2.48275e-09
1.06145e-10
2.32475e-09
4.65357e-10
1.9945e-09
6.05717e-10
1.70898e-09
4.7886e-10
1.58809e-09
2.2333e-10
1.57994e-09
2.442e-11
1.6059e-09
-5.68457e-11
1.86532e-09
-4.20315e-10
2.32985e-09
-5.90887e-10
2.71147e-09
-4.51588e-10
3.14259e-09
-9.42626e-10
3.68149e-09
-1.42868e-09
4.1219e-09
-1.22435e-09
4.48737e-09
-9.26867e-10
4.94395e-09
-9.05473e-10
5.4937e-09
-9.66504e-10
6.14476e-09
-1.12307e-09
6.93178e-09
-1.41808e-09
7.88443e-09
-1.82102e-09
8.96563e-09
-2.16835e-09
1.01478e-08
-2.41503e-09
1.1435e-08
-2.60647e-09
1.2854e-08
-2.81266e-09
1.44356e-08
-3.07539e-09
1.62041e-08
-3.40209e-09
1.81704e-08
-3.77309e-09
2.03303e-08
-4.15848e-09
2.26754e-08
-4.54563e-09
2.52054e-08
-4.9449e-09
2.79314e-08
-5.37602e-09
3.0873e-08
-5.84706e-09
3.40537e-08
-6.34825e-09
3.7494e-08
-6.85297e-09
4.12052e-08
-7.32979e-09
4.52049e-08
-7.77559e-09
4.95339e-08
-8.22508e-09
5.42068e-08
-8.69272e-09
5.91427e-08
-9.13336e-09
6.42713e-08
-9.55729e-09
6.95568e-08
-9.9717e-09
7.50132e-08
-1.04216e-08
8.07218e-08
-1.09583e-08
8.67198e-08
-1.14939e-08
9.29746e-08
-1.19224e-08
9.94448e-08
-1.22444e-08
1.06127e-07
-1.25394e-08
1.13048e-07
-1.28719e-08
1.20227e-07
-1.32285e-08
1.27638e-07
-1.35308e-08
1.35214e-07
-1.37085e-08
1.42869e-07
-1.37333e-08
1.50509e-07
-1.36243e-08
1.58056e-07
-1.34451e-08
1.65532e-07
-1.33485e-08
1.73004e-07
-1.33752e-08
1.80457e-07
-1.33826e-08
1.87846e-07
-1.32971e-08
1.95113e-07
-1.30916e-08
2.02185e-07
-1.27597e-08
2.08996e-07
-1.23307e-08
2.15508e-07
-1.18656e-08
2.21728e-07
-1.14359e-08
2.2769e-07
-1.10859e-08
2.33439e-07
-1.08237e-08
2.39022e-07
-1.06427e-08
2.44478e-07
-1.05091e-08
2.49783e-07
-1.03261e-08
2.54872e-07
-1.0033e-08
2.59701e-07
-9.659e-09
2.64286e-07
-9.27568e-09
2.68648e-07
-8.90148e-09
2.72794e-07
-8.51271e-09
2.76707e-07
-8.08469e-09
2.80372e-07
-7.62061e-09
2.83782e-07
-7.13095e-09
2.86933e-07
-6.62765e-09
2.89826e-07
-6.11807e-09
2.92465e-07
-5.6115e-09
2.94858e-07
-5.11627e-09
2.97016e-07
-4.63978e-09
2.98954e-07
-4.18739e-09
3.00687e-07
-3.76279e-09
3.02232e-07
-3.36834e-09
3.03603e-07
-3.00503e-09
3.04818e-07
-2.67273e-09
3.05892e-07
-2.37072e-09
3.06838e-07
-2.09787e-09
3.07672e-07
-1.85253e-09
3.08404e-07
-1.63275e-09
3.09047e-07
-1.43664e-09
3.0961e-07
-1.26228e-09
3.10104e-07
-1.10772e-09
3.10535e-07
-9.70993e-10
3.10912e-07
-8.50223e-10
3.11241e-07
-7.43687e-10
3.11529e-07
-6.49914e-10
3.1178e-07
-5.67598e-10
3.11999e-07
-4.95444e-10
3.12189e-07
-4.32232e-10
3.12355e-07
-3.76832e-10
3.125e-07
-3.28505e-10
3.12626e-07
-2.8634e-10
3.12735e-07
-2.49569e-10
3.12831e-07
-2.17469e-10
3.12914e-07
-1.89252e-10
3.12986e-07
-1.64761e-10
3.13049e-07
-1.43331e-10
3.13104e-07
-1.24742e-10
3.13152e-07
-1.08562e-10
3.13193e-07
-9.45137e-11
3.1323e-07
-8.21082e-11
3.13261e-07
-7.1455e-11
3.13288e-07
-6.24694e-11
3.13312e-07
-5.47422e-11
3.13333e-07
-4.77252e-11
3.13351e-07
-4.15428e-11
3.13366e-07
-3.61494e-11
3.1338e-07
-3.14831e-11
3.13392e-07
-2.73876e-11
3.13402e-07
-2.38026e-11
3.13411e-07
-2.06776e-11
3.13419e-07
-1.79367e-11
3.13426e-07
-1.55388e-11
3.13432e-07
-1.3469e-11
3.13438e-07
-1.17448e-11
3.13442e-07
-1.02989e-11
3.13446e-07
-9.0687e-12
3.1345e-07
-7.85056e-12
3.13453e-07
-6.89762e-12
3.13455e-07
-6.20082e-12
3.13458e-07
-5.57713e-12
3.1346e-07
-4.91329e-12
3.13461e-07
-4.3334e-12
3.13463e-07
-3.87021e-12
3.13464e-07
-3.48216e-12
3.13466e-07
-3.1454e-12
3.13467e-07
-2.84752e-12
3.13468e-07
-2.58039e-12
3.13469e-07
-2.33847e-12
3.1347e-07
-2.0441e-12
3.1347e-07
-1.72805e-12
3.13471e-07
-1.52917e-12
3.13472e-07
-1.43816e-12
3.13472e-07
-1.38545e-12
3.13473e-07
-1.27119e-12
3.13473e-07
-1.15479e-12
3.13473e-07
-1.07346e-12
3.13474e-07
-9.39721e-13
3.13474e-07
-8.01473e-13
3.13475e-07
-6.46497e-13
3.13475e-07
-4.43131e-13
3.13475e-07
-2.68178e-13
3.13475e-07
-9.33779e-14
3.13475e-07
7.35477e-14
3.13476e-07
2.18478e-13
3.13476e-07
2.62432e-13
3.13476e-07
4.23475e-13
3.13476e-07
5.2568e-13
3.13476e-07
5.8541e-13
3.13476e-07
5.75363e-13
3.13476e-07
5.99744e-13
3.13476e-07
6.59489e-13
3.13476e-07
7.03533e-13
3.13476e-07
7.48633e-13
3.13475e-07
7.79862e-13
3.13475e-07
7.88992e-13
3.13475e-07
7.66157e-13
3.13474e-07
7.65774e-13
3.13474e-07
8.55781e-13
3.13474e-07
9.74234e-13
3.13473e-07
1.18431e-12
3.13473e-07
1.41068e-12
3.13472e-07
1.6744e-12
3.13471e-07
2.03607e-12
3.1347e-07
2.41532e-12
3.13469e-07
2.83038e-12
3.13468e-07
3.24596e-12
3.13466e-07
3.75514e-12
3.13464e-07
4.26406e-12
3.13461e-07
4.97136e-12
3.13458e-07
6.01573e-12
3.13455e-07
7.38269e-12
3.1345e-07
8.929e-12
3.13445e-07
1.06215e-11
3.13439e-07
1.25661e-11
3.13431e-07
1.48404e-11
3.13423e-07
1.75479e-11
3.13412e-07
2.08364e-11
3.134e-07
2.46297e-11
3.13385e-07
2.90282e-11
3.13368e-07
3.42603e-11
3.13349e-07
4.04999e-11
3.13325e-07
4.79859e-11
3.13298e-07
5.68917e-11
3.13267e-07
6.75214e-11
3.1323e-07
8.00725e-11
3.13187e-07
9.48505e-11
3.13137e-07
1.12378e-10
3.1308e-07
1.32955e-10
3.13014e-07
1.56894e-10
3.1294e-07
1.84303e-10
3.12857e-07
2.1548e-10
3.12765e-07
2.50139e-10
3.12666e-07
2.8748e-10
3.1256e-07
3.25877e-10
3.12452e-07
3.61555e-10
3.12345e-07
3.87186e-10
3.91743e-10
4.76106e-07
6.01247e-10
4.76978e-07
2.95983e-09
4.78177e-07
5.10868e-09
4.79487e-07
6.70954e-09
4.80777e-07
8.03567e-09
4.82098e-07
9.31827e-09
4.83544e-07
1.06e-08
4.85114e-07
1.1845e-08
4.86741e-07
1.30404e-08
4.88377e-07
1.42148e-08
4.90005e-07
1.54081e-08
4.91607e-07
1.66497e-08
4.93155e-07
1.79618e-08
4.94618e-07
1.937e-08
4.95967e-07
2.09065e-08
4.97175e-07
2.26072e-08
4.9822e-07
2.45109e-08
4.99077e-07
2.66599e-08
4.9973e-07
2.91017e-08
5.00166e-07
3.18899e-08
5.00387e-07
3.50845e-08
5.00412e-07
3.87519e-08
5.00295e-07
4.29639e-08
5.00149e-07
4.77951e-08
5.00185e-07
5.33165e-08
5.00766e-07
5.95856e-08
5.02474e-07
6.66258e-08
5.06155e-07
7.44178e-08
5.12854e-07
8.28851e-08
5.2428e-07
9.14499e-08
5.38676e-07
1.02803e-07
5.44496e-07
1.02972e-07
5.41248e-07
9.82712e-08
5.18159e-07
9.67533e-08
4.63562e-07
9.06138e-08
4.07085e-07
6.14539e-08
3.68389e-07
3.65224e-08
3.3871e-07
2.86106e-08
3.11102e-07
2.72076e-08
2.82955e-07
2.79043e-08
2.51333e-07
3.14003e-08
2.15495e-07
3.57071e-08
1.81039e-07
3.45598e-08
1.53902e-07
2.7601e-08
1.3643e-07
1.80747e-08
1.26637e-07
1.02684e-08
1.20521e-07
6.33564e-09
1.11715e-07
8.82708e-09
9.57403e-08
1.59144e-08
6.98066e-08
2.55103e-08
3.97109e-08
2.95023e-08
1.33908e-08
2.5867e-08
3.83711e-09
8.61092e-09
2.56004e-09
-1.5178e-10
3.32649e-09
-1.99104e-09
4.28776e-09
-1.88848e-09
5.149e-09
-1.76716e-09
6.12305e-09
-1.94106e-09
7.23027e-09
-2.23081e-09
8.30824e-09
-2.49651e-09
9.21941e-09
-2.73256e-09
1.00185e-08
-2.9677e-09
1.09837e-08
-3.38041e-09
1.22615e-08
-3.88439e-09
1.38161e-08
-4.36728e-09
1.55738e-08
-4.83306e-09
1.74945e-08
-5.32277e-09
1.95821e-08
-5.86078e-09
2.18328e-08
-6.40912e-09
2.42739e-08
-6.98666e-09
2.69171e-08
-7.58794e-09
2.97533e-08
-8.21202e-09
3.27419e-08
-8.83531e-09
3.58694e-08
-9.47542e-09
3.91725e-08
-1.01557e-08
4.27295e-08
-1.08864e-08
4.66977e-08
-1.17434e-08
5.13079e-08
-1.2835e-08
5.73137e-08
-1.46983e-08
6.46792e-08
-1.64986e-08
7.1507e-08
-1.63849e-08
7.8252e-08
-1.67168e-08
8.52292e-08
-1.73989e-08
9.23725e-08
-1.81019e-08
9.97563e-08
-1.88779e-08
1.07596e-07
-1.97623e-08
1.16031e-07
-2.06795e-08
1.25018e-07
-2.15262e-08
1.34397e-07
-2.22511e-08
1.44033e-07
-2.28645e-08
1.53885e-07
-2.33828e-08
1.63984e-07
-2.38083e-08
1.74407e-07
-2.41563e-08
1.85246e-07
-2.44639e-08
1.96578e-07
-2.47771e-08
2.08133e-07
-2.4904e-08
2.19142e-07
-2.43841e-08
2.29424e-07
-2.36643e-08
2.3939e-07
-2.3263e-08
2.49254e-07
-2.2956e-08
2.5902e-07
-2.25255e-08
2.68598e-07
-2.19094e-08
2.7784e-07
-2.11081e-08
2.86679e-07
-2.02743e-08
2.95109e-07
-1.95164e-08
3.03052e-07
-1.8766e-08
3.10578e-07
-1.81692e-08
3.17868e-07
-1.77987e-08
3.24912e-07
-1.73704e-08
3.31511e-07
-1.66316e-08
3.37568e-07
-1.5716e-08
3.43162e-07
-1.48704e-08
3.48426e-07
-1.41651e-08
3.5338e-07
-1.34669e-08
3.57997e-07
-1.27012e-08
3.62257e-07
-1.1881e-08
3.66175e-07
-1.10485e-08
3.69759e-07
-1.02119e-08
3.73018e-07
-9.37739e-09
3.75961e-07
-8.55448e-09
3.78603e-07
-7.75745e-09
3.8096e-07
-6.99733e-09
3.83055e-07
-6.282e-09
3.84909e-07
-5.61667e-09
3.86544e-07
-5.00382e-09
3.87983e-07
-4.44405e-09
3.89247e-07
-3.93624e-09
3.90354e-07
-3.47824e-09
3.91324e-07
-3.0672e-09
3.92171e-07
-2.6998e-09
3.92911e-07
-2.37267e-09
3.93556e-07
-2.08234e-09
3.94119e-07
-1.82536e-09
3.9461e-07
-1.5984e-09
3.95038e-07
-1.39831e-09
3.9541e-07
-1.22217e-09
3.95733e-07
-1.06732e-09
3.96015e-07
-9.31599e-10
3.9626e-07
-8.12664e-10
3.96473e-07
-7.08557e-10
3.96659e-07
-6.17598e-10
3.9682e-07
-5.38179e-10
3.9696e-07
-4.68889e-10
3.97082e-07
-4.08497e-10
3.97188e-07
-3.55818e-10
3.9728e-07
-3.09768e-10
3.9736e-07
-2.69633e-10
3.9743e-07
-2.34525e-10
3.97491e-07
-2.04016e-10
3.97544e-07
-1.7754e-10
3.9759e-07
-1.54535e-10
3.9763e-07
-1.34477e-10
3.97665e-07
-1.16986e-10
3.97695e-07
-1.01851e-10
3.97722e-07
-8.88166e-11
3.97745e-07
-7.75302e-11
3.97764e-07
-6.76244e-11
3.97782e-07
-5.89105e-11
3.97797e-07
-5.12358e-11
3.9781e-07
-4.4566e-11
3.97822e-07
-3.88047e-11
3.97832e-07
-3.37753e-11
3.9784e-07
-2.94006e-11
3.97848e-07
-2.5549e-11
3.97855e-07
-2.22289e-11
3.9786e-07
-1.94038e-11
3.97866e-07
-1.69463e-11
3.9787e-07
-1.48302e-11
3.97874e-07
-1.29422e-11
3.97877e-07
-1.1284e-11
3.9788e-07
-9.87893e-12
3.97883e-07
-8.71052e-12
3.97885e-07
-7.6715e-12
3.97887e-07
-6.78588e-12
3.97888e-07
-6.07861e-12
3.9789e-07
-5.43116e-12
3.97891e-07
-4.87142e-12
3.97892e-07
-4.35687e-12
3.97893e-07
-3.89508e-12
3.97894e-07
-3.49018e-12
3.97895e-07
-3.17386e-12
3.97896e-07
-2.821e-12
3.97896e-07
-2.4656e-12
3.97897e-07
-2.15663e-12
3.97898e-07
-1.94718e-12
3.97898e-07
-1.81568e-12
3.97898e-07
-1.74903e-12
3.97899e-07
-1.58521e-12
3.97899e-07
-1.41489e-12
3.97899e-07
-1.30897e-12
3.979e-07
-1.13155e-12
3.979e-07
-9.54605e-13
3.979e-07
-7.60865e-13
3.97901e-07
-5.57259e-13
3.97901e-07
-3.59304e-13
3.97901e-07
-1.79217e-13
3.97901e-07
-2.18717e-14
3.97902e-07
1.20622e-13
3.97902e-07
2.65089e-13
3.97902e-07
3.87774e-13
3.97902e-07
4.77617e-13
3.97902e-07
5.37856e-13
3.97902e-07
5.85993e-13
3.97902e-07
6.45736e-13
3.97902e-07
7.12694e-13
3.97902e-07
7.83485e-13
3.97902e-07
8.57073e-13
3.97902e-07
9.30879e-13
3.97902e-07
9.94335e-13
3.97901e-07
1.09382e-12
3.97901e-07
1.24888e-12
3.979e-07
1.47373e-12
3.979e-07
1.76202e-12
3.97899e-07
2.11375e-12
3.97898e-07
2.52825e-12
3.97897e-07
3.01596e-12
3.97896e-07
3.56514e-12
3.97895e-07
4.17746e-12
3.97893e-07
4.88353e-12
3.97891e-07
5.71161e-12
3.97889e-07
6.71279e-12
3.97886e-07
7.96514e-12
3.97882e-07
9.54277e-12
3.97878e-07
1.14584e-11
3.97873e-07
1.37006e-11
3.97868e-07
1.62814e-11
3.97861e-07
1.92633e-11
3.97853e-07
2.27351e-11
3.97844e-07
2.68047e-11
3.97833e-07
3.15701e-11
3.97821e-07
3.71086e-11
3.97806e-07
4.35744e-11
3.97789e-07
5.11655e-11
3.9777e-07
6.00948e-11
3.97747e-07
7.06117e-11
3.97721e-07
8.29575e-11
3.97691e-07
9.7385e-11
3.97657e-07
1.14168e-10
3.97618e-07
1.33604e-10
3.97574e-07
1.55984e-10
3.97526e-07
1.81659e-10
3.97472e-07
2.10796e-10
3.97413e-07
2.43306e-10
3.97349e-07
2.79006e-10
3.97282e-07
3.17205e-10
3.97213e-07
3.56777e-10
3.97143e-07
3.95595e-10
3.97075e-07
4.29938e-10
3.97009e-07
4.53373e-10
4.57324e-10
4.79113e-07
5.28967e-10
4.79502e-07
2.57107e-09
4.80196e-07
4.41435e-09
4.81121e-07
5.78325e-09
4.82193e-07
6.96264e-09
4.83354e-07
8.15655e-09
4.84575e-07
9.37814e-09
4.85833e-07
1.05847e-08
4.87106e-07
1.17659e-08
4.88376e-07
1.29428e-08
4.89639e-07
1.41429e-08
4.90899e-07
1.53878e-08
4.92163e-07
1.66962e-08
4.93441e-07
1.80895e-08
4.94752e-07
1.9593e-08
4.96123e-07
2.12346e-08
4.97587e-07
2.30443e-08
4.99191e-07
2.50536e-08
5.00994e-07
2.72964e-08
5.03073e-07
2.98084e-08
5.05529e-07
3.26263e-08
5.08493e-07
3.5786e-08
5.12134e-07
3.93202e-08
5.16674e-07
4.32538e-08
5.22391e-07
4.75969e-08
5.2964e-07
5.23342e-08
5.38855e-07
5.74083e-08
5.50581e-07
6.26898e-08
5.65493e-07
6.79708e-08
5.84275e-07
7.26646e-08
6.10351e-07
7.67239e-08
6.33793e-07
7.95282e-08
6.51744e-07
8.0318e-08
6.67688e-07
8.08065e-08
6.81474e-07
7.6827e-08
6.76784e-07
6.61432e-08
6.57515e-07
5.57913e-08
6.36603e-07
4.95233e-08
6.17853e-07
4.59576e-08
6.02243e-07
4.35138e-08
5.91757e-07
4.18855e-08
5.86376e-07
4.10861e-08
5.80834e-07
4.00984e-08
5.71037e-07
3.73941e-08
5.56356e-07
3.27505e-08
5.38935e-07
2.76845e-08
5.21408e-07
2.38571e-08
5.07851e-07
2.238e-08
5.00884e-07
2.28777e-08
5.0171e-07
2.46824e-08
5.03665e-07
2.75456e-08
4.98822e-07
3.07095e-08
4.79453e-07
2.79799e-08
4.63806e-07
1.54955e-08
4.53615e-07
8.19958e-09
4.45892e-07
5.83498e-09
4.39968e-07
4.15645e-09
4.35715e-07
2.31129e-09
4.32734e-07
7.50845e-10
4.30881e-07
-6.42267e-10
4.30028e-07
-1.87785e-09
4.29956e-07
-2.89297e-09
4.30388e-07
-3.8092e-09
4.31052e-07
-4.5457e-09
4.3146e-07
-4.77228e-09
4.31337e-07
-4.70781e-09
4.30726e-07
-4.71152e-09
4.29567e-07
-4.70175e-09
4.2745e-07
-4.29326e-09
4.23809e-07
-3.34832e-09
4.18563e-07
-2.34406e-09
4.10837e-07
-4.87252e-10
3.99871e-07
2.12956e-09
3.83951e-07
6.44374e-09
3.6221e-07
1.1584e-08
3.33537e-07
1.77846e-08
2.96819e-07
2.49724e-08
2.49975e-07
3.40046e-08
1.91679e-07
4.35911e-08
1.33195e-07
4.19791e-08
9.47419e-08
2.2066e-08
8.35637e-08
-5.53793e-09
8.86782e-08
-2.25121e-08
9.72147e-08
-2.66376e-08
1.0469e-07
-2.6353e-08
1.11918e-07
-2.69909e-08
1.19968e-07
-2.87309e-08
1.28854e-07
-3.04122e-08
1.38057e-07
-3.14542e-08
1.47182e-07
-3.19888e-08
1.56219e-07
-3.24193e-08
1.65461e-07
-3.30499e-08
1.75428e-07
-3.41227e-08
1.86787e-07
-3.58237e-08
2.00993e-07
-3.8983e-08
2.21535e-07
-4.54457e-08
2.41471e-07
-4.43207e-08
2.57235e-07
-3.94286e-08
2.7129e-07
-3.73174e-08
2.84684e-07
-3.63498e-08
2.9776e-07
-3.56014e-08
3.10818e-07
-3.49668e-08
3.24082e-07
-3.43723e-08
3.3767e-07
-3.38618e-08
3.51041e-07
-3.28872e-08
3.62201e-07
-2.99264e-08
3.71293e-07
-2.72614e-08
3.79751e-07
-2.62572e-08
3.88068e-07
-2.56877e-08
3.95807e-07
-2.43701e-08
4.02649e-07
-2.25579e-08
4.08867e-07
-2.1089e-08
4.14797e-07
-2.00949e-08
4.2044e-07
-1.91094e-08
4.25604e-07
-1.78654e-08
4.30259e-07
-1.65356e-08
4.34455e-07
-1.52449e-08
4.38241e-07
-1.39979e-08
4.41633e-07
-1.27688e-08
4.44652e-07
-1.15731e-08
4.47321e-07
-1.04271e-08
4.49668e-07
-9.34432e-09
4.51722e-07
-8.3355e-09
4.53512e-07
-7.40658e-09
4.55068e-07
-6.55996e-09
4.56418e-07
-5.79423e-09
4.57588e-07
-5.1062e-09
4.58601e-07
-4.4912e-09
4.59478e-07
-3.94386e-09
4.60236e-07
-3.4583e-09
4.60892e-07
-3.02882e-09
4.6146e-07
-2.64988e-09
4.61951e-07
-2.31627e-09
4.62376e-07
-2.02311e-09
4.62743e-07
-1.76586e-09
4.63061e-07
-1.5404e-09
4.63337e-07
-1.34298e-09
4.63576e-07
-1.17029e-09
4.63782e-07
-1.01942e-09
4.63962e-07
-8.87694e-10
4.64117e-07
-7.72831e-10
4.64252e-07
-6.7279e-10
4.64368e-07
-5.85676e-10
4.6447e-07
-5.09791e-10
4.64558e-07
-4.43686e-10
4.64634e-07
-3.86101e-10
4.64701e-07
-3.35925e-10
4.64758e-07
-2.92224e-10
4.64808e-07
-2.54117e-10
4.64852e-07
-2.21093e-10
4.64889e-07
-1.92431e-10
4.64922e-07
-1.67492e-10
4.64951e-07
-1.45755e-10
4.64976e-07
-1.2687e-10
4.64998e-07
-1.10518e-10
4.65016e-07
-9.63496e-11
4.65033e-07
-8.40188e-11
4.65047e-07
-7.32608e-11
4.6506e-07
-6.38379e-11
4.65071e-07
-5.56067e-11
4.6508e-07
-4.84336e-11
4.65089e-07
-4.2202e-11
4.65096e-07
-3.67695e-11
4.65102e-07
-3.20494e-11
4.65108e-07
-2.7923e-11
4.65113e-07
-2.43138e-11
4.65117e-07
-2.12099e-11
4.65121e-07
-1.85459e-11
4.65124e-07
-1.62192e-11
4.65127e-07
-1.4181e-11
4.6513e-07
-1.24034e-11
4.65132e-07
-1.09161e-11
4.65134e-07
-9.60725e-12
4.65135e-07
-8.50368e-12
4.65137e-07
-7.56155e-12
4.65138e-07
-6.74258e-12
4.65139e-07
-5.9898e-12
4.6514e-07
-5.32239e-12
4.65141e-07
-4.74011e-12
4.65142e-07
-4.21166e-12
4.65142e-07
-3.74479e-12
4.65143e-07
-3.31098e-12
4.65144e-07
-2.95181e-12
4.65144e-07
-2.64904e-12
4.65144e-07
-2.32998e-12
4.65145e-07
-2.13554e-12
4.65145e-07
-1.99077e-12
4.65145e-07
-1.83385e-12
4.65145e-07
-1.66171e-12
4.65145e-07
-1.49391e-12
4.65146e-07
-1.3255e-12
4.65146e-07
-1.1386e-12
4.65146e-07
-9.47973e-13
4.65146e-07
-7.53222e-13
4.65147e-07