/*--------------------------------*- C++ -*----------------------------------*\
| =========                 |                                                 |
| \\      /  F ield         | OpenFOAM: The Open Source CFD Toolbox           |
|  \\    /   O peration     | Version:  2406                                  |
|   \\  /    A nd           | Website:  www.openfoam.com                      |
|    \\/     M anipulation  |                                                 |
\*---------------------------------------------------------------------------*/
FoamFile
{
    version     2.0;
    format      ascii;
    arch        "LSB;label=32;scalar=64";
    class       volVectorField;
    location    "0.15";
    object      U;
}
// * * * * * * * * * * * * * * * * * * * * * * * * * * * * * * * * * * * * * //

dimensions      [0 1 -1 0 0 0 0];

internalField   nonuniform List<vector> 
6250
(
(0.543657 0.00775721 0)
(0.758286 0.0282198 0)
(0.564958 0.0344779 0)
(0.453735 0.0322069 0)
(0.458036 0.0299257 0)
(0.470656 0.029692 0)
(0.454524 0.0295506 0)
(0.427337 0.0282308 0)
(0.404807 0.0261087 0)
(0.387057 0.023897 0)
(0.369937 0.0218444 0)
(0.352197 0.0198964 0)
(0.33459 0.0180287 0)
(0.317652 0.0163105 0)
(0.301293 0.0148187 0)
(0.285275 0.0135888 0)
(0.269461 0.0126285 0)
(0.253761 0.0119376 0)
(0.238062 0.0115104 0)
(0.222215 0.0113298 0)
(0.206066 0.0113629 0)
(0.189462 0.0115579 0)
(0.172254 0.0118379 0)
(0.15431 0.0120879 0)
(0.135517 0.0121345 0)
(0.115765 0.0117293 0)
(0.0949296 0.0106359 0)
(0.0728793 0.00906651 0)
(0.058902 0.00601144 0)
(0.000935706 0.00432094 0)
(0.0026521 0.00147022 0)
(0.00340652 0.000665064 0)
(0.00403575 0.000269526 0)
(0.0041778 0.000191591 0)
(0.00375362 0.000155886 0)
(0.00303731 0.000323024 0)
(0.00232837 0.000350826 0)
(0.00186416 0.000247525 0)
(0.00169892 0.000103516 0)
(0.00171542 3.20196e-05 0)
(0.00174919 3.22888e-05 0)
(0.00171018 6.26935e-05 0)
(0.00160216 7.74669e-05 0)
(0.00147408 7.08439e-05 0)
(0.0013665 5.25364e-05 0)
(0.00129378 3.3495e-05 0)
(0.00125097 2.16713e-05 0)
(0.00122477 2.02842e-05 0)
(0.00120287 2.73115e-05 0)
(0.00118005 2.56633e-05 0)
(0.00115309 3.14885e-05 0)
(0.00114594 7.51373e-06 0)
(0.00123785 -8.57315e-05 0)
(0.0014705 -0.000170485 0)
(0.00176989 -0.000167584 0)
(0.00203176 -0.000114461 0)
(0.00221941 -6.73651e-05 0)
(0.00235569 -4.33176e-05 0)
(0.00248282 -4.75326e-05 0)
(0.0026466 -8.10651e-05 0)
(0.0028852 -0.000133443 0)
(0.00321214 -0.000181461 0)
(0.00361169 -0.000208304 0)
(0.00405517 -0.000213896 0)
(0.00452205 -0.00020949 0)
(0.00500933 -0.00020661 0)
(0.00552775 -0.000210873 0)
(0.00609272 -0.000221698 0)
(0.0067172 -0.000235534 0)
(0.00740987 -0.000249844 0)
(0.00817766 -0.000264973 0)
(0.00902858 -0.000282542 0)
(0.00997092 -0.000302227 0)
(0.0110085 -0.000319897 0)
(0.0121354 -0.000328643 0)
(0.0133344 -0.000322111 0)
(0.014581 -0.000298338 0)
(0.0158536 -0.000263542 0)
(0.0171459 -0.000230797 0)
(0.018473 -0.00021307 0)
(0.0198614 -0.000213501 0)
(0.0213355 -0.000227253 0)
(0.0229109 -0.000250223 0)
(0.0245923 -0.000275336 0)
(0.0263695 -0.000292312 0)
(0.0282156 -0.000294005 0)
(0.0300998 -0.000282855 0)
(0.0320018 -0.000269344 0)
(0.0339175 -0.000262748 0)
(0.0358495 -0.000264117 0)
(0.0377938 -0.000267005 0)
(0.0397344 -0.000264455 0)
(0.0416493 -0.000254426 0)
(0.0435232 -0.000242225 0)
(0.0453594 -0.000239317 0)
(0.0471806 -0.000256378 0)
(0.0490145 -0.00029181 0)
(0.0508743 -0.000332278 0)
(0.0527525 -0.000365884 0)
(0.0546284 -0.000387051 0)
(0.0564808 -0.000396461 0)
(0.0582949 -0.000398964 0)
(0.0600678 -0.000400943 0)
(0.0618084 -0.000409184 0)
(0.0635345 -0.000426176 0)
(0.0652649 -0.000452804 0)
(0.0670157 -0.000486948 0)
(0.0687936 -0.000523728 0)
(0.0705942 -0.000556334 0)
(0.072402 -0.000580123 0)
(0.0741988 -0.000595891 0)
(0.0759702 -0.000605252 0)
(0.0777059 -0.000609424 0)
(0.0793959 -0.000608001 0)
(0.0810295 -0.000600885 0)
(0.082596 -0.000587325 0)
(0.0840855 -0.000567612 0)
(0.0854906 -0.000542993 0)
(0.0868064 -0.00051501 0)
(0.0880297 -0.00048441 0)
(0.0891597 -0.000452076 0)
(0.0901967 -0.00041889 0)
(0.0911432 -0.000385185 0)
(0.0920028 -0.000352029 0)
(0.0927799 -0.000320698 0)
(0.0934798 -0.000290779 0)
(0.0941074 -0.000261958 0)
(0.0946682 -0.000235117 0)
(0.0951679 -0.000210822 0)
(0.0956122 -0.00018847 0)
(0.0960061 -0.000167388 0)
(0.0963543 -0.000148139 0)
(0.0966616 -0.000131041 0)
(0.0969323 -0.000115924 0)
(0.0971706 -0.000102323 0)
(0.0973798 -8.98761e-05 0)
(0.0975633 -7.84468e-05 0)
(0.0977239 -6.87552e-05 0)
(0.0978646 -6.04199e-05 0)
(0.0979876 -5.29307e-05 0)
(0.0980952 -4.6606e-05 0)
(0.0981894 -4.08757e-05 0)
(0.0982716 -3.54666e-05 0)
(0.0983432 -3.09513e-05 0)
(0.0984058 -2.69907e-05 0)
(0.0984605 -2.34576e-05 0)
(0.0985082 -2.03115e-05 0)
(0.0985496 -1.76205e-05 0)
(0.0985855 -1.52993e-05 0)
(0.0986167 -1.32e-05 0)
(0.0986438 -1.12547e-05 0)
(0.0986672 -9.80658e-06 0)
(0.0986877 -8.79066e-06 0)
(0.0987057 -7.85899e-06 0)
(0.0987214 -6.90508e-06 0)
(0.0987351 -6.32791e-06 0)
(0.0987472 -5.81504e-06 0)
(0.0987577 -5.04255e-06 0)
(0.0987668 -4.21425e-06 0)
(0.0987747 -3.56368e-06 0)
(0.0987816 -3.00813e-06 0)
(0.0987875 -2.50928e-06 0)
(0.0987926 -2.03768e-06 0)
(0.0987971 -1.49039e-06 0)
(0.0988008 -1.00322e-06 0)
(0.098804 -8.65901e-07 0)
(0.0988067 -9.02261e-07 0)
(0.0988091 -8.67526e-07 0)
(0.0988111 -7.98948e-07 0)
(0.0988129 -7.75173e-07 0)
(0.0988145 -7.84995e-07 0)
(0.098816 -7.43477e-07 0)
(0.0988174 -6.48267e-07 0)
(0.0988187 -5.37961e-07 0)
(0.0988198 -4.63102e-07 0)
(0.0988208 -3.45125e-07 0)
(0.0988216 -2.1492e-07 0)
(0.0988223 -1.36676e-07 0)
(0.0988229 -2.33891e-07 0)
(0.0988234 -5.02006e-07 0)
(0.098824 -4.15219e-07 0)
(0.0988244 -7.33894e-08 0)
(0.0988247 1.79932e-07 0)
(0.0988249 3.80216e-07 0)
(0.0988251 3.23789e-08 0)
(0.0988254 -6.30129e-07 0)
(0.098826 -6.18487e-07 0)
(0.0988265 -2.70257e-07 0)
(0.0988269 -1.10917e-07 0)
(0.0988273 -4.22755e-08 0)
(0.0988276 -1.05816e-08 0)
(0.0988279 3.1147e-09 0)
(0.0988282 4.73708e-08 0)
(0.0988283 1.18103e-07 0)
(0.0988284 2.26662e-07 0)
(0.0988284 4.16598e-07 0)
(0.0988283 9.01327e-07 0)
(0.0988278 1.2919e-06 0)
(0.0988272 1.02157e-06 0)
(0.0988268 5.4094e-07 0)
(0.0988264 2.02603e-07 0)
(0.0988261 2.3111e-07 0)
(0.0988258 4.96635e-07 0)
(0.0988255 6.20543e-07 0)
(0.0988251 6.82812e-07 0)
(0.0988247 8.33899e-07 0)
(0.0988243 9.891e-07 0)
(0.0988239 8.42107e-07 0)
(0.0988236 5.57089e-07 0)
(0.0988234 4.36911e-07 0)
(0.0988232 4.08292e-07 0)
(0.098823 4.19845e-07 0)
(0.0988228 4.31306e-07 0)
(0.0988225 4.56249e-07 0)
(0.0988223 4.90054e-07 0)
(0.0988219 5.2823e-07 0)
(0.0988215 5.61411e-07 0)
(0.0988209 5.84976e-07 0)
(0.0988203 6.06848e-07 0)
(0.0988196 6.22212e-07 0)
(0.0988188 6.35749e-07 0)
(0.098818 6.44128e-07 0)
(0.0988171 6.65491e-07 0)
(0.0988159 7.01882e-07 0)
(0.0988145 6.79862e-07 0)
(0.0988128 5.8562e-07 0)
(0.0988109 5.74871e-07 0)
(0.0988087 7.18086e-07 0)
(0.098806 8.80331e-07 0)
(0.0988029 9.64152e-07 0)
(0.0987992 1.03012e-06 0)
(0.0987948 1.18024e-06 0)
(0.0987894 1.32074e-06 0)
(0.0987829 1.66137e-06 0)
(0.098775 2.14385e-06 0)
(0.0987653 2.8755e-06 0)
(0.0987535 3.8349e-06 0)
(0.098739 5.08003e-06 0)
(0.098721 6.70979e-06 0)
(0.0986988 8.8685e-06 0)
(0.0986712 1.17922e-05 0)
(0.0986369 1.57472e-05 0)
(0.098594 2.11193e-05 0)
(0.0985404 2.84675e-05 0)
(0.0984735 3.84352e-05 0)
(0.098391 5.14828e-05 0)
(0.0982878 6.82379e-05 0)
(0.0981477 9.03931e-05 0)
(0.0979606 0.000122175 0)
(0.0978359 0.000146112 0)
(0.562887 0.00610222 0)
(0.819725 0.0263582 0)
(0.6617 0.0387158 0)
(0.571076 0.0415589 0)
(0.591451 0.0421645 0)
(0.624258 0.0444041 0)
(0.630392 0.0472087 0)
(0.623459 0.049021 0)
(0.618011 0.0498044 0)
(0.615051 0.0501753 0)
(0.61111 0.0504508 0)
(0.60489 0.0506232 0)
(0.59696 0.0506698 0)
(0.58788 0.0506652 0)
(0.5777 0.050719 0)
(0.566296 0.0509202 0)
(0.553606 0.0513387 0)
(0.539605 0.0520439 0)
(0.524232 0.0531107 0)
(0.507368 0.0546168 0)
(0.488837 0.0566434 0)
(0.468398 0.0592815 0)
(0.445723 0.0626447 0)
(0.420349 0.0668933 0)
(0.391615 0.0722841 0)
(0.358562 0.0792723 0)
(0.319745 0.0888011 0)
(0.273176 0.102866 0)
(0.215563 0.127596 0)
(0.164594 0.156316 0)
(0.00889167 -0.00455141 0)
(0.00502478 -0.000710958 0)
(0.00366486 -0.000771937 0)
(0.00354285 0.000932233 0)
(0.00214406 0.00100962 0)
(0.0011538 0.00161409 0)
(0.00103185 0.00139723 0)
(0.00137943 0.000683414 0)
(0.00193439 4.24584e-05 0)
(0.00247271 -0.000154326 0)
(0.00281223 -1.8914e-05 0)
(0.00289525 0.000221636 0)
(0.00276793 0.000355806 0)
(0.00251545 0.000352873 0)
(0.00223458 0.000275032 0)
(0.00200079 0.000183593 0)
(0.00185561 0.000111909 0)
(0.00180773 6.50949e-05 0)
(0.00185259 4.21673e-05 0)
(0.00199024 1.27833e-05 0)
(0.00216177 -7.57111e-06 0)
(0.00230227 -0.000170386 0)
(0.00258899 -0.000621209 0)
(0.00322443 -0.00103787 0)
(0.00399592 -0.00104916 0)
(0.00460983 -0.000842315 0)
(0.00504965 -0.000662088 0)
(0.00542524 -0.000584027 0)
(0.00582685 -0.000643412 0)
(0.00633681 -0.000850724 0)
(0.0070301 -0.00116313 0)
(0.007929 -0.00147586 0)
(0.00898896 -0.00170977 0)
(0.0101483 -0.00186121 0)
(0.0113775 -0.00198104 0)
(0.0126888 -0.00212484 0)
(0.0141165 -0.00232355 0)
(0.0156943 -0.0025794 0)
(0.0174427 -0.00287803 0)
(0.0193699 -0.00320722 0)
(0.0214823 -0.00356652 0)
(0.0237927 -0.00396091 0)
(0.0263202 -0.00438475 0)
(0.02908 -0.00481202 0)
(0.0320725 -0.00520321 0)
(0.0352775 -0.00552324 0)
(0.0386588 -0.0057652 0)
(0.0421818 -0.00595729 0)
(0.0458322 -0.0061583 0)
(0.0496342 -0.00641459 0)
(0.0536279 -0.00672766 0)
(0.0578432 -0.0070817 0)
(0.0622983 -0.00745572 0)
(0.0670067 -0.00781671 0)
(0.071958 -0.00810556 0)
(0.0771046 -0.00827618 0)
(0.0823832 -0.00833936 0)
(0.0877554 -0.0083476 0)
(0.0932215 -0.00834311 0)
(0.0987955 -0.00832126 0)
(0.104471 -0.00824177 0)
(0.110205 -0.00806994 0)
(0.115934 -0.007812 0)
(0.121601 -0.00752342 0)
(0.127183 -0.00729334 0)
(0.132709 -0.00718938 0)
(0.138231 -0.00719885 0)
(0.143774 -0.00724537 0)
(0.14931 -0.00725824 0)
(0.154784 -0.00720767 0)
(0.160138 -0.00709782 0)
(0.165332 -0.00695735 0)
(0.170349 -0.00682896 0)
(0.175203 -0.00674843 0)
(0.179927 -0.00673431 0)
(0.184561 -0.00678091 0)
(0.18914 -0.0068657 0)
(0.193687 -0.00695067 0)
(0.198193 -0.00698956 0)
(0.202625 -0.00695803 0)
(0.206945 -0.00686032 0)
(0.211129 -0.00671879 0)
(0.215166 -0.00654181 0)
(0.219049 -0.00632961 0)
(0.222758 -0.00607767 0)
(0.226276 -0.00579081 0)
(0.229588 -0.00547401 0)
(0.232683 -0.00513639 0)
(0.235556 -0.00478473 0)
(0.238206 -0.00442723 0)
(0.240634 -0.0040709 0)
(0.242847 -0.00372197 0)
(0.244853 -0.00338511 0)
(0.246663 -0.0030638 0)
(0.24829 -0.00276113 0)
(0.249747 -0.00247886 0)
(0.251046 -0.00221768 0)
(0.252203 -0.00197776 0)
(0.253229 -0.00175886 0)
(0.254137 -0.00156017 0)
(0.25494 -0.00138063 0)
(0.255647 -0.00121931 0)
(0.25627 -0.00107492 0)
(0.256817 -0.000946146 0)
(0.257297 -0.000831417 0)
(0.257719 -0.000729585 0)
(0.258088 -0.000639398 0)
(0.258411 -0.000559799 0)
(0.258693 -0.000489663 0)
(0.258939 -0.000427979 0)
(0.259154 -0.00037392 0)
(0.259341 -0.00032665 0)
(0.259505 -0.000285229 0)
(0.259648 -0.000248972 0)
(0.259772 -0.000217041 0)
(0.259881 -0.000189007 0)
(0.259976 -0.000164477 0)
(0.260058 -0.000143101 0)
(0.260129 -0.000124581 0)
(0.260191 -0.000108193 0)
(0.260245 -9.39751e-05 0)
(0.260292 -8.15318e-05 0)
(0.260333 -7.12185e-05 0)
(0.260369 -6.23626e-05 0)
(0.2604 -5.47266e-05 0)
(0.260428 -4.76784e-05 0)
(0.260451 -4.15139e-05 0)
(0.260472 -3.6188e-05 0)
(0.260489 -3.17849e-05 0)
(0.260505 -2.76873e-05 0)
(0.260519 -2.40254e-05 0)
(0.260531 -2.07515e-05 0)
(0.260541 -1.78869e-05 0)
(0.26055 -1.54459e-05 0)
(0.260558 -1.32237e-05 0)
(0.260565 -1.11353e-05 0)
(0.260571 -9.5954e-06 0)
(0.260576 -8.4272e-06 0)
(0.26058 -7.44804e-06 0)
(0.260583 -6.89481e-06 0)
(0.260587 -6.4686e-06 0)
(0.26059 -5.95538e-06 0)
(0.260593 -5.08707e-06 0)
(0.260595 -4.33253e-06 0)
(0.260598 -3.80677e-06 0)
(0.2606 -3.41712e-06 0)
(0.260601 -3.09565e-06 0)
(0.260603 -2.80791e-06 0)
(0.260604 -2.55344e-06 0)
(0.260605 -2.32924e-06 0)
(0.260607 -2.0626e-06 0)
(0.260607 -1.75888e-06 0)
(0.260608 -1.51537e-06 0)
(0.260609 -1.32946e-06 0)
(0.26061 -1.26151e-06 0)
(0.260611 -1.36673e-06 0)
(0.260611 -1.49724e-06 0)
(0.260612 -1.47169e-06 0)
(0.260613 -1.30398e-06 0)
(0.260613 -1.08099e-06 0)
(0.260614 -8.81854e-07 0)
(0.260614 -6.71003e-07 0)
(0.260614 -5.12859e-07 0)
(0.260614 -2.61663e-07 0)
(0.260615 3.7755e-08 0)
(0.260615 3.64013e-07 0)
(0.260615 7.53219e-07 0)
(0.260614 1.20439e-06 0)
(0.260614 1.32652e-06 0)
(0.260614 1.31686e-06 0)
(0.260614 1.13547e-06 0)
(0.260614 1.13215e-06 0)
(0.260614 1.2354e-06 0)
(0.260614 1.27839e-06 0)
(0.260613 1.23523e-06 0)
(0.260613 1.12975e-06 0)
(0.260613 9.96598e-07 0)
(0.260612 8.38805e-07 0)
(0.260612 7.47115e-07 0)
(0.260611 6.62518e-07 0)
(0.260611 6.73571e-07 0)
(0.26061 8.17636e-07 0)
(0.26061 9.5217e-07 0)
(0.260609 1.13077e-06 0)
(0.260609 1.37593e-06 0)
(0.260608 1.63445e-06 0)
(0.260607 1.95004e-06 0)
(0.260606 2.29639e-06 0)
(0.260605 2.66334e-06 0)
(0.260603 3.0109e-06 0)
(0.260601 3.2607e-06 0)
(0.260599 3.28758e-06 0)
(0.260597 3.71249e-06 0)
(0.260594 4.94499e-06 0)
(0.26059 6.19444e-06 0)
(0.260586 7.22334e-06 0)
(0.260581 8.38468e-06 0)
(0.260575 9.78224e-06 0)
(0.260567 1.15077e-05 0)
(0.260559 1.36657e-05 0)
(0.260548 1.63504e-05 0)
(0.260536 1.97897e-05 0)
(0.260522 2.41986e-05 0)
(0.260504 2.95333e-05 0)
(0.260484 3.53367e-05 0)
(0.260459 4.24719e-05 0)
(0.26043 5.16964e-05 0)
(0.260395 6.32024e-05 0)
(0.260354 7.75048e-05 0)
(0.260305 9.50757e-05 0)
(0.260247 0.000116984 0)
(0.260177 0.000144255 0)
(0.260095 0.000178078 0)
(0.259998 0.000219752 0)
(0.259884 0.00027044 0)
(0.259755 0.000330956 0)
(0.259605 0.000401394 0)
(0.259417 0.000476565 0)
(0.259179 0.000540241 0)
(0.259114 0.00055658 0)
(0.56405 0.00158139 0)
(0.814663 0.00769739 0)
(0.643905 0.0135177 0)
(0.54899 0.0181218 0)
(0.572265 0.0221768 0)
(0.608883 0.0263276 0)
(0.61818 0.0304802 0)
(0.61518 0.0343117 0)
(0.615362 0.0377756 0)
(0.619461 0.0410299 0)
(0.623456 0.0441934 0)
(0.625779 0.0472975 0)
(0.626925 0.0503699 0)
(0.627393 0.0534799 0)
(0.627131 0.0567212 0)
(0.625919 0.0601901 0)
(0.623627 0.0639839 0)
(0.620196 0.0682094 0)
(0.615548 0.0729877 0)
(0.60957 0.0784579 0)
(0.602121 0.0847829 0)
(0.593035 0.0921623 0)
(0.582123 0.100853 0)
(0.569177 0.111201 0)
(0.553991 0.123697 0)
(0.536478 0.139051 0)
(0.516641 0.158339 0)
(0.495916 0.183112 0)
(0.473326 0.216124 0)
(0.460221 0.261674 0)
(0.418666 0.300718 0)
(0.341481 0.0972207 0)
(0.24928 0.0478475 0)
(0.0441543 0.00900373 0)
(0.0112514 0.00144969 0)
(-0.000431367 0.00128209 0)
(0.000386314 0.00128166 0)
(0.00249323 8.67528e-05 0)
(0.00283698 -0.000713749 0)
(0.00259226 -0.000645732 0)
(0.00249637 -0.000203694 0)
(0.00273149 0.000371259 0)
(0.0030947 0.000560465 0)
(0.00306464 0.00050318 0)
(0.00271439 0.000400168 0)
(0.00229175 0.000266983 0)
(0.00202732 0.000152546 0)
(0.00194397 3.47843e-05 0)
(0.00196554 -1.74007e-05 0)
(0.00205315 -0.000204001 0)
(0.00251159 6.72597e-06 0)
(0.00324641 -0.000166084 0)
(0.00378008 -0.00157084 0)
(0.00424123 -0.00252002 0)
(0.00480398 -0.00220845 0)
(0.00536167 -0.00159211 0)
(0.00588568 -0.00128239 0)
(0.00648951 -0.00121585 0)
(0.00723225 -0.00140043 0)
(0.00814411 -0.00188968 0)
(0.00923947 -0.00260146 0)
(0.0105009 -0.00326713 0)
(0.0119029 -0.00373198 0)
(0.0134393 -0.00403411 0)
(0.0151279 -0.00430749 0)
(0.0170014 -0.004661 0)
(0.0190943 -0.00513446 0)
(0.0214277 -0.00570885 0)
(0.0240045 -0.00634128 0)
(0.0268176 -0.00700574 0)
(0.0298628 -0.00770953 0)
(0.0331467 -0.00847486 0)
(0.0366875 -0.00930176 0)
(0.040511 -0.0101512 0)
(0.0446422 -0.0109556 0)
(0.049099 -0.0116459 0)
(0.0539067 -0.0121864 0)
(0.0590973 -0.0126046 0)
(0.0647311 -0.0130518 0)
(0.070778 -0.0137647 0)
(0.0770828 -0.0147418 0)
(0.0835829 -0.0158527 0)
(0.0902927 -0.01708 0)
(0.0972671 -0.0183484 0)
(0.104573 -0.0194852 0)
(0.112224 -0.0203646 0)
(0.120178 -0.0210313 0)
(0.128404 -0.021649 0)
(0.136912 -0.0223437 0)
(0.145732 -0.0231001 0)
(0.15486 -0.0237877 0)
(0.164241 -0.0242818 0)
(0.173775 -0.0245549 0)
(0.183345 -0.0246553 0)
(0.192856 -0.0246826 0)
(0.202264 -0.0247049 0)
(0.211618 -0.0246202 0)
(0.220946 -0.0243235 0)
(0.230226 -0.0238047 0)
(0.239404 -0.02306 0)
(0.248385 -0.022123 0)
(0.257076 -0.0210861 0)
(0.265406 -0.0200814 0)
(0.273356 -0.019252 0)
(0.280961 -0.0186717 0)
(0.288267 -0.0183234 0)
(0.295338 -0.0181717 0)
(0.302236 -0.0181185 0)
(0.308977 -0.0180042 0)
(0.315485 -0.0177098 0)
(0.321687 -0.0172654 0)
(0.327564 -0.0167386 0)
(0.333154 -0.0161694 0)
(0.338473 -0.0155308 0)
(0.343515 -0.0148095 0)
(0.348253 -0.0140081 0)
(0.352677 -0.0131551 0)
(0.356776 -0.0122654 0)
(0.360553 -0.0113596 0)
(0.364008 -0.0104521 0)
(0.367149 -0.00955991 0)
(0.36999 -0.00869651 0)
(0.372546 -0.00787216 0)
(0.374835 -0.00709407 0)
(0.376878 -0.00636745 0)
(0.378696 -0.00569498 0)
(0.380308 -0.005077 0)
(0.381733 -0.00451292 0)
(0.382992 -0.00400141 0)
(0.384101 -0.00353971 0)
(0.385076 -0.00312469 0)
(0.385932 -0.00275334 0)
(0.386683 -0.00242253 0)
(0.387341 -0.00212867 0)
(0.387916 -0.00186791 0)
(0.388419 -0.00163693 0)
(0.388859 -0.00143257 0)
(0.389243 -0.0012526 0)
(0.389578 -0.00109473 0)
(0.389871 -0.000956235 0)
(0.390125 -0.000834778 0)
(0.390347 -0.000728139 0)
(0.39054 -0.000635215 0)
(0.390709 -0.000554317 0)
(0.390855 -0.000483634 0)
(0.390983 -0.000421748 0)
(0.391094 -0.000367042 0)
(0.391191 -0.000319371 0)
(0.391275 -0.000277898 0)
(0.391348 -0.0002416 0)
(0.391412 -0.000210031 0)
(0.391467 -0.000182391 0)
(0.391516 -0.00015825 0)
(0.391558 -0.000137777 0)
(0.391594 -0.000121317 0)
(0.391626 -0.000106447 0)
(0.391653 -9.26013e-05 0)
(0.391678 -8.04193e-05 0)
(0.391699 -7.01736e-05 0)
(0.391717 -6.11245e-05 0)
(0.391733 -5.31756e-05 0)
(0.391747 -4.61811e-05 0)
(0.391759 -4.00406e-05 0)
(0.39177 -3.46878e-05 0)
(0.391779 -2.99525e-05 0)
(0.391787 -2.57096e-05 0)
(0.391794 -2.23317e-05 0)
(0.3918 -1.95293e-05 0)
(0.391805 -1.70224e-05 0)
(0.39181 -1.46799e-05 0)
(0.391814 -1.31538e-05 0)
(0.391817 -1.24685e-05 0)
(0.391821 -1.12195e-05 0)
(0.391823 -9.74966e-06 0)
(0.391826 -8.56111e-06 0)
(0.391828 -7.6382e-06 0)
(0.39183 -6.88765e-06 0)
(0.391831 -6.25743e-06 0)
(0.391833 -5.71831e-06 0)
(0.391834 -5.21388e-06 0)
(0.391835 -4.67746e-06 0)
(0.391836 -3.9667e-06 0)
(0.391837 -3.18659e-06 0)
(0.391838 -2.9075e-06 0)
(0.391839 -2.94834e-06 0)
(0.39184 -2.88603e-06 0)
(0.39184 -2.7602e-06 0)
(0.391841 -2.58421e-06 0)
(0.391841 -2.42861e-06 0)
(0.391842 -2.1555e-06 0)
(0.391842 -1.73393e-06 0)
(0.391843 -1.24273e-06 0)
(0.391843 -8.54686e-07 0)
(0.391844 -4.53255e-07 0)
(0.391844 -5.07887e-08 0)
(0.391844 3.53644e-07 0)
(0.391844 7.46695e-07 0)
(0.391845 1.03561e-06 0)
(0.391845 1.33153e-06 0)
(0.391845 1.47506e-06 0)
(0.391845 1.27187e-06 0)
(0.391845 1.25432e-06 0)
(0.391845 1.37252e-06 0)
(0.391845 1.51096e-06 0)
(0.391845 1.61557e-06 0)
(0.391845 1.68604e-06 0)
(0.391844 1.65878e-06 0)
(0.391844 1.51287e-06 0)
(0.391844 1.41691e-06 0)
(0.391843 1.3343e-06 0)
(0.391843 1.48293e-06 0)
(0.391842 1.81598e-06 0)
(0.391842 2.1838e-06 0)
(0.391841 2.6207e-06 0)
(0.391841 3.16524e-06 0)
(0.39184 3.8777e-06 0)
(0.391839 4.59051e-06 0)
(0.391837 5.28736e-06 0)
(0.391836 6.02818e-06 0)
(0.391834 6.8383e-06 0)
(0.391831 7.51311e-06 0)
(0.391829 8.67133e-06 0)
(0.391825 1.0779e-05 0)
(0.391821 1.34093e-05 0)
(0.391816 1.62148e-05 0)
(0.39181 1.92508e-05 0)
(0.391803 2.2727e-05 0)
(0.391794 2.68907e-05 0)
(0.391784 3.20125e-05 0)
(0.391772 3.83093e-05 0)
(0.391758 4.52605e-05 0)
(0.391741 5.31465e-05 0)
(0.391722 6.28159e-05 0)
(0.391699 7.45836e-05 0)
(0.391672 8.92125e-05 0)
(0.391641 0.000106919 0)
(0.391605 0.000127962 0)
(0.391562 0.000153096 0)
(0.391512 0.000183218 0)
(0.391455 0.000219315 0)
(0.391388 0.000262581 0)
(0.391312 0.000313501 0)
(0.391224 0.000372845 0)
(0.391126 0.000442059 0)
(0.391016 0.000521094 0)
(0.3909 0.000608606 0)
(0.390771 0.000701516 0)
(0.390614 0.000790948 0)
(0.390403 0.000857878 0)
(0.390443 0.000871392 0)
(0.567172 0.00178325 0)
(0.821953 0.00864373 0)
(0.650302 0.0148808 0)
(0.551331 0.0193891 0)
(0.571074 0.0228449 0)
(0.605338 0.0260026 0)
(0.6125 0.029112 0)
(0.607292 0.0321218 0)
(0.605565 0.0349981 0)
(0.608341 0.0378149 0)
(0.611633 0.0406824 0)
(0.61386 0.0436849 0)
(0.615566 0.0468859 0)
(0.617319 0.050354 0)
(0.619117 0.0541712 0)
(0.620772 0.0584283 0)
(0.622198 0.0632244 0)
(0.623387 0.0686698 0)
(0.624337 0.0748917 0)
(0.625031 0.082038 0)
(0.625456 0.0902817 0)
(0.625622 0.0998262 0)
(0.625573 0.110911 0)
(0.625411 0.12382 0)
(0.625326 0.138878 0)
(0.62567 0.156448 0)
(0.626945 0.176882 0)
(0.630184 0.20046 0)
(0.636155 0.227116 0)
(0.647163 0.255207 0)
(0.665304 0.296893 0)
(0.677537 0.295156 0)
(0.683476 0.29237 0)
(0.659296 0.307085 0)
(0.616884 0.20939 0)
(0.55452 0.0617025 0)
(0.486497 -0.00154379 0)
(0.436311 -0.00588716 0)
(0.402613 7.35909e-05 0)
(0.371427 0.00498942 0)
(0.34457 0.0111548 0)
(0.305357 0.0165296 0)
(0.230613 0.0142222 0)
(0.193778 0.00773553 0)
(0.177125 0.00102899 0)
(0.168443 -0.00367278 0)
(0.163418 -0.00539628 0)
(0.14923 -0.000413991 0)
(0.129106 0.00856577 0)
(0.130967 0.015367 0)
(0.0669521 0.0102466 0)
(0.0164878 6.52858e-05 0)
(0.00860253 -0.00289392 0)
(0.00399903 -0.00374671 0)
(0.00329545 -0.00284611 0)
(0.00461843 -0.00198528 0)
(0.00589734 -0.00187395 0)
(0.00700072 -0.00191585 0)
(0.00831592 -0.0021818 0)
(0.00975619 -0.00279247 0)
(0.0110177 -0.0036816 0)
(0.0120136 -0.00443664 0)
(0.0130491 -0.00492974 0)
(0.0144283 -0.00526872 0)
(0.0162125 -0.00563268 0)
(0.018307 -0.00611653 0)
(0.0206227 -0.00673313 0)
(0.0231302 -0.00744283 0)
(0.0258293 -0.00818735 0)
(0.0287507 -0.00894071 0)
(0.0319297 -0.00971979 0)
(0.0353657 -0.010566 0)
(0.0390162 -0.0114939 0)
(0.0428398 -0.0124738 0)
(0.0468422 -0.0134434 0)
(0.0510903 -0.0143282 0)
(0.0557248 -0.0151156 0)
(0.0610192 -0.0158775 0)
(0.0674776 -0.0166897 0)
(0.0762023 -0.0180654 0)
(0.085106 -0.020581 0)
(0.0934983 -0.0233295 0)
(0.102119 -0.0259599 0)
(0.110974 -0.0286084 0)
(0.119985 -0.0310213 0)
(0.129405 -0.0329367 0)
(0.139547 -0.0344258 0)
(0.150491 -0.0357671 0)
(0.162053 -0.0371574 0)
(0.173977 -0.0385391 0)
(0.186137 -0.0396661 0)
(0.198571 -0.0403231 0)
(0.211365 -0.040399 0)
(0.224659 -0.0399588 0)
(0.238555 -0.0392711 0)
(0.252978 -0.0392258 0)
(0.26719 -0.0402821 0)
(0.280487 -0.0416483 0)
(0.293092 -0.0427099 0)
(0.305435 -0.0432693 0)
(0.3177 -0.0433071 0)
(0.329809 -0.0428925 0)
(0.341609 -0.0421332 0)
(0.35294 -0.0410955 0)
(0.363779 -0.0397331 0)
(0.374012 -0.0380415 0)
(0.383662 -0.0363958 0)
(0.392906 -0.0351023 0)
(0.401863 -0.0338876 0)
(0.410411 -0.0324547 0)
(0.418318 -0.0308703 0)
(0.425577 -0.0294474 0)
(0.432343 -0.0281986 0)
(0.438732 -0.0269625 0)
(0.444716 -0.0255832 0)
(0.450269 -0.0240818 0)
(0.455375 -0.0224925 0)
(0.460062 -0.0208684 0)
(0.464334 -0.0192254 0)
(0.468207 -0.0175994 0)
(0.471691 -0.0160144 0)
(0.474809 -0.0144948 0)
(0.477585 -0.0130569 0)
(0.480046 -0.0117115 0)
(0.48222 -0.0104655 0)
(0.484135 -0.00932112 0)
(0.485818 -0.00827772 0)
(0.487295 -0.00733195 0)
(0.488587 -0.0064795 0)
(0.489718 -0.00571465 0)
(0.490706 -0.0050312 0)
(0.491568 -0.00442282 0)
(0.49232 -0.0038828 0)
(0.492976 -0.0034046 0)
(0.493547 -0.002982 0)
(0.494045 -0.00260923 0)
(0.494478 -0.00228088 0)
(0.494854 -0.00199237 0)
(0.495182 -0.00173917 0)
(0.495467 -0.00151733 0)
(0.495715 -0.00132325 0)
(0.495931 -0.00115356 0)
(0.496119 -0.00100543 0)
(0.496282 -0.000876161 0)
(0.496423 -0.000763366 0)
(0.496547 -0.000664878 0)
(0.496654 -0.000578856 0)
(0.496747 -0.000503865 0)
(0.496828 -0.000438453 0)
(0.496899 -0.000381614 0)
(0.496961 -0.000332121 0)
(0.497014 -0.00028905 0)
(0.497061 -0.000251386 0)
(0.497102 -0.000218766 0)
(0.497137 -0.000190724 0)
(0.497167 -0.000166572 0)
(0.497194 -0.000145286 0)
(0.497217 -0.000126566 0)
(0.497237 -0.000110122 0)
(0.497255 -9.58518e-05 0)
(0.49727 -8.34486e-05 0)
(0.497284 -7.26132e-05 0)
(0.497295 -6.3162e-05 0)
(0.497305 -5.48788e-05 0)
(0.497314 -4.76909e-05 0)
(0.497322 -4.1548e-05 0)
(0.497329 -3.62695e-05 0)
(0.497335 -3.17423e-05 0)
(0.49734 -2.77897e-05 0)
(0.497345 -2.42034e-05 0)
(0.497349 -2.11189e-05 0)
(0.497352 -1.85644e-05 0)
(0.497355 -1.6442e-05 0)
(0.497357 -1.45914e-05 0)
(0.497359 -1.30416e-05 0)
(0.497361 -1.16815e-05 0)
(0.497363 -1.05114e-05 0)
(0.497364 -9.45878e-06 0)
(0.497366 -8.52358e-06 0)
(0.497367 -7.70694e-06 0)
(0.497368 -7.03625e-06 0)
(0.497369 -6.27922e-06 0)
(0.49737 -5.47613e-06 0)
(0.497371 -4.83225e-06 0)
(0.497372 -4.41356e-06 0)
(0.497372 -4.13396e-06 0)
(0.497373 -3.82436e-06 0)
(0.497373 -3.42157e-06 0)
(0.497374 -3.05439e-06 0)
(0.497374 -2.73259e-06 0)
(0.497374 -2.36048e-06 0)
(0.497375 -1.96323e-06 0)
(0.497375 -1.45666e-06 0)
(0.497376 -9.61034e-07 0)
(0.497376 -4.84219e-07 0)
(0.497376 -5.94627e-08 0)
(0.497377 2.97391e-07 0)
(0.497377 5.09977e-07 0)
(0.497377 8.55914e-07 0)
(0.497377 1.16299e-06 0)
(0.497377 1.39821e-06 0)
(0.497378 1.50027e-06 0)
(0.497378 1.57612e-06 0)
(0.497378 1.70759e-06 0)
(0.497378 1.8427e-06 0)
(0.497378 1.98789e-06 0)
(0.497378 2.12954e-06 0)
(0.497377 2.24273e-06 0)
(0.497377 2.31272e-06 0)
(0.497377 2.4339e-06 0)
(0.497376 2.70009e-06 0)
(0.497376 3.10094e-06 0)
(0.497375 3.70054e-06 0)
(0.497374 4.41938e-06 0)
(0.497373 5.25573e-06 0)
(0.497372 6.29596e-06 0)
(0.497371 7.45727e-06 0)
(0.497369 8.76326e-06 0)
(0.497368 1.01734e-05 0)
(0.497365 1.18588e-05 0)
(0.497363 1.38253e-05 0)
(0.497359 1.63216e-05 0)
(0.497355 1.95438e-05 0)
(0.497351 2.36104e-05 0)
(0.497345 2.83868e-05 0)
(0.497339 3.37885e-05 0)
(0.497331 4.00147e-05 0)
(0.497322 4.7253e-05 0)
(0.497311 5.57647e-05 0)
(0.497299 6.58713e-05 0)
(0.497284 7.77382e-05 0)
(0.497268 9.1656e-05 0)
(0.497248 0.000108057 0)
(0.497225 0.000127406 0)
(0.497199 0.000150271 0)
(0.497169 0.000177306 0)
(0.497134 0.000209291 0)
(0.497094 0.000246827 0)
(0.497048 0.000290688 0)
(0.496997 0.000341855 0)
(0.496939 0.000401295 0)
(0.496875 0.000469729 0)
(0.496804 0.000547133 0)
(0.496727 0.000633314 0)
(0.496645 0.000726941 0)
(0.496563 0.000825535 0)
(0.496477 0.000924153 0)
(0.496362 0.00101328 0)
(0.49619 0.00107546 0)
(0.49633 0.00108613 0)
(0.569434 0.00144468 0)
(0.826676 0.00689413 0)
(0.654065 0.0117157 0)
(0.553485 0.0152238 0)
(0.572582 0.0182017 0)
(0.606873 0.0212406 0)
(0.614013 0.0243852 0)
(0.608483 0.0274952 0)
(0.606268 0.0305206 0)
(0.608554 0.0335171 0)
(0.611391 0.0365652 0)
(0.613182 0.0397269 0)
(0.614488 0.0430536 0)
(0.615931 0.0466054 0)
(0.617573 0.0504561 0)
(0.61929 0.0546891 0)
(0.62106 0.0593951 0)
(0.622956 0.0646727 0)
(0.625066 0.0706309 0)
(0.627475 0.0773888 0)
(0.630288 0.0850755 0)
(0.633644 0.0938267 0)
(0.637731 0.10378 0)
(0.642789 0.115062 0)
(0.649127 0.127767 0)
(0.657133 0.141926 0)
(0.667306 0.157436 0)
(0.680206 0.173985 0)
(0.69677 0.191014 0)
(0.717179 0.206729 0)
(0.744666 0.222156 0)
(0.776858 0.235923 0)
(0.80496 0.24047 0)
(0.827494 0.239882 0)
(0.844054 0.220501 0)
(0.850823 0.186027 0)
(0.839221 0.156678 0)
(0.812407 0.136421 0)
(0.783714 0.122548 0)
(0.760863 0.114214 0)
(0.744806 0.112502 0)
(0.735087 0.117001 0)
(0.727553 0.119498 0)
(0.71945 0.109898 0)
(0.706475 0.0898775 0)
(0.686941 0.0671084 0)
(0.664258 0.0497188 0)
(0.643786 0.0433291 0)
(0.628669 0.0488402 0)
(0.62325 0.0671046 0)
(0.625671 0.0939895 0)
(0.62425 0.111779 0)
(0.615098 0.0621659 0)
(0.594904 0.011786 0)
(0.573323 -0.0066226 0)
(0.559515 -0.00902539 0)
(0.552073 -0.0092267 0)
(0.546986 -0.010965 0)
(0.54268 -0.0127728 0)
(0.53948 -0.0139671 0)
(0.537723 -0.0148036 0)
(0.537183 -0.0156616 0)
(0.537471 -0.0175999 0)
(0.538445 -0.019961 0)
(0.5393 -0.0212462 0)
(0.539479 -0.0219839 0)
(0.53893 -0.0233007 0)
(0.537856 -0.0253081 0)
(0.535964 -0.0270529 0)
(0.532531 -0.0282717 0)
(0.52715 -0.0295098 0)
(0.519332 -0.0305842 0)
(0.508065 -0.0312747 0)
(0.491929 -0.0317411 0)
(0.469172 -0.0316889 0)
(0.439697 -0.0304642 0)
(0.401889 -0.0286979 0)
(0.352644 -0.0274467 0)
(0.29113 -0.0292249 0)
(0.183342 -0.0378409 0)
(0.123194 -0.0423475 0)
(0.107097 -0.0427324 0)
(0.107468 -0.0414059 0)
(0.116547 -0.041048 0)
(0.126159 -0.0418868 0)
(0.135074 -0.0432341 0)
(0.144609 -0.04463 0)
(0.155353 -0.0459097 0)
(0.166826 -0.0470469 0)
(0.178328 -0.0480447 0)
(0.189614 -0.0488495 0)
(0.200931 -0.049379 0)
(0.212728 -0.0496738 0)
(0.225825 -0.0498198 0)
(0.241326 -0.0501066 0)
(0.263217 -0.0513229 0)
(0.290049 -0.0555509 0)
(0.312299 -0.059755 0)
(0.330637 -0.0621259 0)
(0.347615 -0.0628706 0)
(0.364055 -0.0622471 0)
(0.380324 -0.0604956 0)
(0.396804 -0.0579145 0)
(0.413739 -0.0555776 0)
(0.430617 -0.0544883 0)
(0.446072 -0.0545324 0)
(0.458765 -0.0555409 0)
(0.469729 -0.0564763 0)
(0.480135 -0.0560056 0)
(0.490116 -0.0532482 0)
(0.499237 -0.0493476 0)
(0.5074 -0.0457276 0)
(0.514941 -0.0429643 0)
(0.522154 -0.0404756 0)
(0.528917 -0.0379141 0)
(0.53505 -0.0352945 0)
(0.540582 -0.0327496 0)
(0.545556 -0.0302076 0)
(0.550039 -0.0276803 0)
(0.554037 -0.0251868 0)
(0.557585 -0.0227831 0)
(0.560711 -0.0204984 0)
(0.563452 -0.0183564 0)
(0.565845 -0.0163727 0)
(0.567928 -0.0145526 0)
(0.569736 -0.0128966 0)
(0.571304 -0.0113998 0)
(0.572662 -0.0100547 0)
(0.573837 -0.00885148 0)
(0.574854 -0.00777932 0)
(0.575734 -0.00682714 0)
(0.576495 -0.00598394 0)
(0.577153 -0.00523916 0)
(0.577722 -0.00458282 0)
(0.578215 -0.00400544 0)
(0.578642 -0.00349807 0)
(0.579011 -0.0030528 0)
(0.579331 -0.00266291 0)
(0.579608 -0.00232168 0)
(0.579848 -0.00202327 0)
(0.580056 -0.00176268 0)
(0.580236 -0.00153534 0)
(0.580392 -0.00133715 0)
(0.580528 -0.00116444 0)
(0.580646 -0.00101388 0)
(0.580748 -0.000882495 0)
(0.580837 -0.000767945 0)
(0.580914 -0.000667929 0)
(0.580981 -0.000580786 0)
(0.581039 -0.000505312 0)
(0.58109 -0.000439909 0)
(0.581134 -0.000382902 0)
(0.581172 -0.00033319 0)
(0.581205 -0.00029005 0)
(0.581234 -0.000252788 0)
(0.58126 -0.000220524 0)
(0.581281 -0.000192373 0)
(0.581301 -0.000167697 0)
(0.581317 -0.000145958 0)
(0.581332 -0.000126999 0)
(0.581345 -0.000110584 0)
(0.581356 -9.63075e-05 0)
(0.581366 -8.38751e-05 0)
(0.581374 -7.29937e-05 0)