/*--------------------------------*- C++ -*----------------------------------*\
| =========                 |                                                 |
| \\      /  F ield         | OpenFOAM: The Open Source CFD Toolbox           |
|  \\    /   O peration     | Version:  2406                                  |
|   \\  /    A nd           | Website:  www.openfoam.com                      |
|    \\/     M anipulation  |                                                 |
\*---------------------------------------------------------------------------*/
FoamFile
{
    version     2.0;
    format      ascii;
    arch        "LSB;label=32;scalar=64";
    class       surfaceScalarField;
    location    "0.4";
    object      phi;
}
// * * * * * * * * * * * * * * * * * * * * * * * * * * * * * * * * * * * * * //

dimensions      [0 3 -1 0 0 0 0];

oriented        oriented;

internalField   nonuniform List<scalar> 
7780
(
9.39876e-07
-5.6677e-13
9.39877e-07
-5.22082e-13
9.39878e-07
-3.6322e-13
9.39878e-07
-6.59067e-13
9.39878e-07
-6.52182e-13
9.39878e-07
-3.91167e-13
9.39879e-07
-1.46556e-13
9.39879e-07
-1.53519e-14
9.39879e-07
5.47662e-14
9.39879e-07
9.35357e-14
9.39879e-07
-9.72549e-14
9.39878e-07
-1.36129e-13
9.39878e-07
-1.27193e-13
9.39878e-07
-2.28353e-13
9.39878e-07
-1.99902e-13
9.39878e-07
-1.95883e-13
9.39878e-07
-4.04848e-14
9.39878e-07
-1.04707e-13
9.39878e-07
-8.67833e-14
9.39878e-07
-3.62974e-14
9.39878e-07
-6.00649e-14
9.39878e-07
6.20766e-15
9.39878e-07
-1.70452e-13
9.39878e-07
-3.26717e-13
9.39878e-07
-7.83184e-14
9.39879e-07
2.18146e-13
9.39878e-07
1.55743e-13
9.39878e-07
1.14251e-13
9.39878e-07
2.31599e-13
9.39878e-07
2.12071e-13
9.39878e-07
-1.86136e-15
9.39878e-07
-1.0361e-13
9.39878e-07
3.11081e-14
9.39878e-07
1.89133e-13
9.39878e-07
1.65609e-13
9.39877e-07
8.58089e-14
9.39877e-07
1.71747e-13
9.39877e-07
2.70144e-13
9.39877e-07
1.93818e-13
9.39877e-07
8.23223e-14
9.39877e-07
1.09249e-13
9.39877e-07
1.77514e-13
9.39877e-07
1.36829e-13
9.39877e-07
4.51556e-14
9.39877e-07
2.70504e-14
9.39877e-07
9.51204e-14
9.39876e-07
2.42688e-13
9.39876e-07
4.11694e-13
9.39875e-07
4.92563e-13
9.39875e-07
4.53152e-13
9.39875e-07
3.78708e-13
9.39874e-07
3.3969e-13
9.39874e-07
2.82506e-13
9.39874e-07
1.69983e-13
9.39873e-07
9.1593e-14
9.39873e-07
1.13721e-13
9.39873e-07
1.56674e-13
9.39873e-07
1.48571e-13
9.39873e-07
1.31209e-13
9.39873e-07
2.02985e-13
9.39872e-07
3.56371e-13
9.39872e-07
4.13659e-13
9.39872e-07
2.74303e-13
9.39872e-07
6.23656e-14
9.39872e-07
-3.63931e-14
9.39872e-07
-1.36225e-14
9.39871e-07
5.45907e-14
9.39871e-07
1.56596e-13
9.39871e-07
2.33756e-13
9.39871e-07
1.68235e-13
9.39871e-07
1.54381e-15
9.39871e-07
-1.02737e-13
9.39871e-07
-1.06638e-13
9.39872e-07
-1.17293e-13
9.39872e-07
-1.77431e-13
9.39872e-07
-1.89362e-13
9.39872e-07
-1.24768e-13
9.39873e-07
-1.25728e-13
9.39873e-07
-2.66777e-13
9.39873e-07
-4.20437e-13
9.39873e-07
-4.79282e-13
9.39874e-07
-4.65161e-13
9.39874e-07
-4.05848e-13
9.39875e-07
-3.40805e-13
9.39876e-07
-3.53984e-13
9.39876e-07
-4.73292e-13
9.39877e-07
-5.87079e-13
9.39877e-07
-5.59532e-13
9.39878e-07
-4.1411e-13
9.39878e-07
-3.08895e-13
9.39879e-07
-3.13213e-13
9.39879e-07
-3.36305e-13
9.39879e-07
-3.07781e-13
9.39879e-07
-2.34555e-13
9.39879e-07
-1.3338e-13
9.39879e-07
-5.26301e-14
9.39879e-07
-8.02729e-14
9.39879e-07
-1.73237e-13
9.39879e-07
-2.0204e-13
9.39879e-07
-1.17477e-13
9.39879e-07
-1.2972e-14
9.39879e-07
1.04372e-14
9.39879e-07
-2.01636e-14
9.39879e-07
-1.06404e-14
9.3988e-07
4.33691e-14
9.3988e-07
7.17405e-14
9.3988e-07
4.67054e-14
9.3988e-07
-1.33784e-14
9.3988e-07
-1.1615e-13
9.3988e-07
-2.13827e-13
9.3988e-07
-1.93312e-13
9.3988e-07
-4.84216e-14
9.39881e-07
4.17811e-14
9.39881e-07
-7.6047e-14
9.39881e-07
-3.15722e-13
9.39881e-07
-4.6674e-13
9.39882e-07
-4.75263e-13
9.39882e-07
-4.21456e-13
9.39882e-07
-3.59599e-13
9.39882e-07
-3.08254e-13
9.39883e-07
-2.98696e-13
9.39883e-07
-3.13808e-13
9.39883e-07
-2.81638e-13
9.39883e-07
-2.04874e-13
9.39883e-07
-1.7707e-13
9.39883e-07
-2.12521e-13
9.39883e-07
-2.22577e-13
9.39883e-07
-1.53349e-13
9.39883e-07
-5.33802e-14
9.39883e-07
4.02989e-15
9.39883e-07
-1.16947e-14
9.39883e-07
-8.60129e-14
9.39883e-07
-1.88148e-13
9.39883e-07
-2.18627e-13
9.39883e-07
-1.29725e-13
9.39883e-07
-4.87127e-14
9.39883e-07
-1.11584e-13
9.39883e-07
-2.69112e-13
9.39883e-07
-3.91681e-13
9.39883e-07
-4.52389e-13
9.39884e-07
-5.1754e-13
9.39884e-07
-5.9378e-13
9.39885e-07
-5.62756e-13
9.39885e-07
-4.01337e-13
9.39885e-07
-2.68986e-13
9.39885e-07
-2.48281e-13
9.39885e-07
-2.61131e-13
9.39886e-07
-2.69034e-13
9.39886e-07
-2.83767e-13
9.39886e-07
-2.28932e-13
9.39886e-07
-4.71245e-14
9.39886e-07
1.26951e-13
9.39887e-07
1.02479e-13
9.39887e-07
-1.29491e-13
9.39887e-07
-3.4012e-13
9.39887e-07
-3.6426e-13
9.39887e-07
-2.71841e-13
9.39887e-07
-1.41268e-13
9.39887e-07
3.45661e-14
9.39887e-07
1.36573e-13
9.39887e-07
2.22281e-14
9.39887e-07
-2.02014e-13
9.39887e-07
-3.0684e-13
9.39887e-07
-2.45715e-13
9.39888e-07
-1.58745e-13
9.39888e-07
-1.3493e-13
9.39888e-07
-1.42977e-13
9.39888e-07
-1.17269e-13
9.39888e-07
-5.15864e-14
9.39888e-07
3.75127e-15
9.39888e-07
2.92706e-14
9.39888e-07
1.34392e-14
9.39888e-07
-4.28624e-14
9.39888e-07
-5.77834e-14
9.39888e-07
-1.20341e-14
9.39889e-07
-2.80092e-14
9.39889e-07
-1.65802e-13
9.39889e-07
-3.01934e-13
9.39889e-07
-2.51431e-13
9.3989e-07
-1.07705e-13
9.3989e-07
-1.98036e-13
9.3989e-07
-4.04521e-13
9.3989e-07
-3.97198e-13
9.3989e-07
-2.00602e-13
9.3989e-07
1.182e-14
9.39891e-07
9.72575e-14
9.39891e-07
2.2145e-14
9.39891e-07
-4.06544e-14
9.39891e-07
-5.05416e-14
9.39891e-07
-3.61429e-14
9.39891e-07
5.28996e-14
9.39892e-07
7.36014e-14
9.39892e-07
3.02755e-14
9.39892e-07
1.73857e-13
9.39892e-07
2.77643e-13
9.39891e-07
2.47571e-13
9.3989e-07
5.71657e-13
9.39889e-07
1.34383e-12
9.39888e-07
2.00533e-12
1.67377e-12
2.62868e-06
-9.38058e-13
2.62868e-06
-1.55216e-12
2.62868e-06
-1.70329e-12
2.62868e-06
-1.32232e-12
2.62868e-06
-1.4156e-12
2.62868e-06
-1.13558e-12
2.62868e-06
-6.5349e-13
2.62868e-06
-4.39915e-13
2.62868e-06
-2.42162e-13
2.62868e-06
1.46149e-14
2.62868e-06
-2.18854e-13
2.62868e-06
-4.07078e-13
2.62868e-06
-1.89694e-13
2.62868e-06
-1.63628e-13
2.62868e-06
-3.10889e-13
2.62868e-06
-4.72824e-13
2.62868e-06
-5.71431e-13
2.62868e-06
-5.57589e-13
2.62868e-06
-4.6816e-13
2.62868e-06
-2.6728e-13
2.62868e-06
-3.1523e-13
2.62868e-06
-1.99901e-13
2.62868e-06
1.93156e-13
2.62868e-06
4.6806e-13
2.62868e-06
5.38955e-13
2.62868e-06
3.67586e-13
2.62868e-06
7.00883e-14
2.62868e-06
-1.47378e-13
2.62868e-06
-1.81128e-13
2.62868e-06
-1.85719e-14
2.62868e-06
2.10838e-13
2.62868e-06
2.81304e-13
2.62868e-06
2.19728e-13
2.62868e-06
2.79039e-13
2.62868e-06
4.02707e-13
2.62868e-06
3.5836e-13
2.62868e-06
2.49384e-13
2.62868e-06
2.54654e-13
2.62868e-06
3.68173e-13
2.62868e-06
4.85626e-13
2.62868e-06
4.77784e-13
2.62868e-06
3.29007e-13
2.62868e-06
1.74289e-13
2.62868e-06
1.44456e-13
2.62868e-06
2.53807e-13
2.62868e-06
3.70248e-13
2.62868e-06
3.81783e-13
2.62868e-06
3.09968e-13
2.62868e-06
2.13847e-13
2.62868e-06
1.37844e-13
2.62868e-06
1.28242e-13
2.62868e-06
2.26633e-13
2.62868e-06
3.87722e-13
2.62868e-06
4.92534e-13
2.62868e-06
5.29822e-13
2.62868e-06
6.19401e-13
2.62868e-06
8.02351e-13
2.62868e-06
9.42667e-13
2.62868e-06
8.67689e-13
2.62868e-06
6.09204e-13
2.62868e-06
3.54997e-13
2.62868e-06
2.40286e-13
2.62868e-06
2.09398e-13
2.62868e-06
1.65155e-13
2.62868e-06
1.32252e-13
2.62868e-06
1.29854e-13
2.62868e-06
1.40532e-13
2.62868e-06
1.93866e-13
2.62868e-06
3.05656e-13
2.62868e-06
3.31037e-13
2.62868e-06
1.45181e-13
2.62868e-06
-1.27126e-13
2.62868e-06
-2.41005e-13
2.62868e-06
-1.66265e-13
2.62868e-06
-1.0501e-13
2.62868e-06
-1.72961e-13
2.62868e-06
-3.1668e-13
2.62868e-06
-5.01799e-13
2.62868e-06
-7.61481e-13
2.62868e-06
-1.03021e-12
2.62868e-06
-1.1932e-12
2.62868e-06
-1.25362e-12
2.62868e-06
-1.25538e-12
2.62868e-06
-1.1648e-12
2.62868e-06
-9.75194e-13
2.62868e-06
-8.16566e-13
2.62868e-06
-7.99478e-13
2.62868e-06
-8.80479e-13
2.62868e-06
-8.64654e-13
2.62868e-06
-6.81493e-13
2.62868e-06
-4.47055e-13
2.62868e-06
-2.90315e-13
2.62868e-06
-2.56306e-13
2.62868e-06
-3.20396e-13
2.62868e-06
-3.81321e-13
2.62868e-06
-3.19411e-13
2.62868e-06
-1.75725e-13
2.62868e-06
-8.91731e-14
2.62868e-06
-1.26325e-13
2.62868e-06
-1.96303e-13
2.62868e-06
-2.06708e-13
2.62868e-06
-1.7218e-13
2.62868e-06
-1.43439e-13
2.62868e-06
-1.13425e-13
2.62868e-06
-4.3077e-14
2.62868e-06
1.90482e-14
2.62868e-06
4.80111e-14
2.62868e-06
8.56849e-14
2.62868e-06
1.04847e-13
2.62869e-06
-2.52105e-14
2.62869e-06
-3.17734e-13
2.62869e-06
-5.8807e-13
2.62869e-06
-6.90722e-13
2.62869e-06
-7.07455e-13
2.62869e-06
-7.65439e-13
2.62869e-06
-8.32345e-13
2.62869e-06
-8.11381e-13
2.62869e-06
-7.16584e-13
2.62869e-06
-6.08613e-13
2.62869e-06
-5.0482e-13
2.62869e-06
-4.41533e-13
2.62869e-06
-4.64269e-13
2.62869e-06
-5.15257e-13
2.62869e-06
-4.84488e-13
2.62869e-06
-3.87853e-13
2.62869e-06
-3.43689e-13
2.62869e-06
-3.81214e-13
2.62869e-06
-4.32822e-13
2.62869e-06
-4.3836e-13
2.62869e-06
-4.0893e-13
2.62869e-06
-3.77064e-13
2.62869e-06
-3.8027e-13
2.62869e-06
-4.63736e-13
2.62869e-06
-5.88434e-13
2.62869e-06
-6.23104e-13
2.62869e-06
-5.66623e-13
2.62869e-06
-6.05584e-13
2.62869e-06
-8.2982e-13
2.62869e-06
-1.07071e-12
2.62869e-06
-1.11309e-12
2.62869e-06
-9.92023e-13
2.62869e-06
-9.56268e-13
2.62869e-06
-1.08297e-12
2.62869e-06
-1.17579e-12
2.62869e-06
-1.10997e-12
2.62869e-06
-9.40916e-13
2.62869e-06
-7.03799e-13
2.62869e-06
-4.43468e-13
2.62869e-06
-3.10455e-13
2.62869e-06
-3.85806e-13
2.62869e-06
-5.35247e-13
2.62869e-06
-5.74668e-13
2.62869e-06
-4.77837e-13
2.62869e-06
-3.81953e-13
2.62869e-06
-3.22644e-13
2.62869e-06
-2.02677e-13
2.62869e-06
-5.73344e-14
2.62869e-06
-4.34633e-14
2.62869e-06
-1.16807e-13
2.62869e-06
-1.51691e-13
2.62869e-06
-1.90553e-13
2.62869e-06
-3.02139e-13
2.62869e-06
-4.31101e-13
2.62869e-06
-4.95854e-13
2.62869e-06
-5.01726e-13
2.62869e-06
-4.86488e-13
2.62869e-06
-4.27458e-13
2.6287e-06
-2.96393e-13
2.6287e-06
-1.17113e-13
2.6287e-06
2.14268e-14
2.6287e-06
1.00754e-13
2.6287e-06
1.72426e-13
2.6287e-06
1.37762e-13
2.6287e-06
-1.00226e-13
2.6287e-06
-4.02368e-13
2.6287e-06
-5.79622e-13
2.6287e-06
-5.88561e-13
2.6287e-06
-5.65749e-13
2.6287e-06
-5.34751e-13
2.6287e-06
-3.50012e-13
2.6287e-06
-1.29443e-13
2.6287e-06
-8.1581e-14
2.6287e-06
-1.05383e-13
2.6287e-06
-1.07263e-13
2.6287e-06
-7.85826e-14
2.6287e-06
7.46889e-14
2.6287e-06
2.75201e-13
2.6287e-06
3.28226e-13
2.6287e-06
2.05827e-13
2.6287e-06
6.37361e-14
2.6287e-06
1.34376e-13
2.6287e-06
4.31381e-13
2.6287e-06
7.23479e-13
2.6287e-06
9.0994e-13
2.6287e-06
1.07463e-12
2.6287e-06
1.31923e-12
2.62869e-06
1.65379e-12
2.62869e-06
2.24642e-12
2.62869e-06
2.87958e-12
3.0587e-12
4.12736e-06
-2.25059e-12
4.12736e-06
-2.28499e-12
4.12736e-06
-2.42339e-12
4.12736e-06
-2.26522e-12
4.12736e-06
-1.72212e-12
4.12736e-06
-1.54346e-12
4.12736e-06
-1.29617e-12
4.12736e-06
-9.21561e-13
4.12736e-06
-4.57631e-13
4.12736e-06
-3.40263e-13
4.12736e-06
-1.33215e-13
4.12736e-06
-5.53201e-14
4.12736e-06
-2.70388e-13
4.12736e-06
-3.01127e-13
4.12736e-06
-4.44298e-13
4.12736e-06
-4.8378e-13
4.12736e-06
-3.49173e-13
4.12736e-06
-3.29159e-13
4.12736e-06
-2.61126e-13
4.12736e-06
-2.35768e-13
4.12736e-06
-3.57215e-13
4.12736e-06
-2.02924e-13
4.12736e-06
2.21872e-13
4.12736e-06
2.5238e-13
4.12736e-06
1.96631e-13
4.12736e-06
3.17434e-13
4.12736e-06
3.24433e-13
4.12736e-06
1.60299e-13
4.12736e-06
1.89969e-14
4.12736e-06
4.10219e-15
4.12736e-06
1.37993e-13
4.12736e-06
2.67757e-13
4.12736e-06
2.83545e-13
4.12736e-06
3.16021e-13
4.12736e-06
4.58924e-13
4.12736e-06
4.73878e-13
4.12736e-06
3.06116e-13
4.12736e-06
1.93355e-13
4.12736e-06
2.09461e-13
4.12736e-06
2.36452e-13
4.12736e-06
2.04629e-13
4.12736e-06
1.63527e-13
4.12736e-06
1.63385e-13
4.12736e-06
1.75551e-13
4.12736e-06
2.00091e-13
4.12736e-06
2.43446e-13
4.12736e-06
2.64147e-13
4.12736e-06
2.72857e-13
4.12736e-06
3.50625e-13
4.12736e-06
4.86958e-13
4.12736e-06
5.58773e-13
4.12736e-06
5.52313e-13
4.12736e-06
5.85799e-13
4.12736e-06
6.74594e-13
4.12736e-06
7.10913e-13
4.12736e-06
6.73593e-13
4.12736e-06
6.73406e-13
4.12736e-06
7.67005e-13
4.12736e-06
8.43815e-13
4.12736e-06
7.675e-13
4.12736e-06
5.63259e-13
4.12736e-06
3.96902e-13
4.12736e-06
3.49544e-13
4.12736e-06
3.76611e-13
4.12736e-06
4.46588e-13
4.12736e-06
5.45516e-13
4.12736e-06
5.59843e-13
4.12736e-06
4.25224e-13
4.12736e-06
2.66975e-13
4.12736e-06
1.84386e-13
4.12736e-06
7.72714e-14
4.12736e-06
-1.36879e-13
4.12736e-06
-3.46042e-13
4.12736e-06
-4.16432e-13
4.12736e-06
-4.10203e-13
4.12736e-06
-4.88527e-13
4.12736e-06
-6.40024e-13
4.12736e-06
-7.27236e-13
4.12736e-06
-7.40705e-13
4.12736e-06
-7.56609e-13
4.12736e-06
-7.95833e-13
4.12736e-06
-8.77903e-13
4.12736e-06
-1.04509e-12
4.12736e-06
-1.25501e-12
4.12736e-06
-1.37382e-12
4.12736e-06
-1.31989e-12
4.12736e-06
-1.16557e-12
4.12736e-06
-1.05085e-12
4.12736e-06
-1.00519e-12
4.12736e-06
-9.40903e-13
4.12736e-06
-8.19086e-13
4.12736e-06
-6.53047e-13
4.12736e-06
-4.62657e-13
4.12736e-06
-3.06583e-13
4.12736e-06
-2.39418e-13
4.12736e-06
-1.93623e-13
4.12736e-06
-1.10386e-13
4.12736e-06
-3.50853e-14
4.12736e-06
-4.50924e-14
4.12736e-06
-1.13486e-13
4.12736e-06
-1.35047e-13
4.12736e-06
-6.68156e-14
4.12736e-06
2.17886e-14
4.12736e-06
9.21398e-14
4.12736e-06
1.65771e-13
4.12736e-06
2.08118e-13
4.12736e-06
1.42098e-13
4.12736e-06
1.05672e-14
4.12736e-06
-4.25431e-14
4.12736e-06
-6.28225e-15
4.12736e-06
-3.15193e-14
4.12736e-06
-1.88551e-13
4.12736e-06
-3.65878e-13
4.12736e-06
-4.71452e-13
4.12736e-06
-5.62194e-13
4.12736e-06
-6.81157e-13
4.12736e-06
-7.61264e-13
4.12736e-06
-7.62089e-13
4.12736e-06
-7.31546e-13
4.12736e-06
-6.88376e-13
4.12736e-06
-6.30656e-13
4.12736e-06
-6.08856e-13
4.12736e-06
-6.5248e-13
4.12736e-06
-6.7718e-13
4.12736e-06
-5.83764e-13
4.12736e-06
-4.1144e-13
4.12736e-06
-2.90434e-13
4.12736e-06
-3.01939e-13
4.12736e-06
-4.34928e-13
4.12736e-06
-6.27692e-13
4.12736e-06
-7.68554e-13
4.12736e-06
-7.45937e-13
4.12736e-06
-6.35526e-13
4.12736e-06
-6.10523e-13
4.12736e-06
-7.21772e-13
4.12736e-06
-8.65732e-13
4.12736e-06
-1.00681e-12
4.12736e-06
-1.20483e-12
4.12736e-06
-1.44023e-12
4.12736e-06
-1.55644e-12
4.12736e-06
-1.44875e-12
4.12736e-06
-1.26121e-12
4.12736e-06
-1.19981e-12
4.12736e-06
-1.21613e-12
4.12736e-06
-1.15025e-12
4.12736e-06
-1.01635e-12
4.12736e-06
-8.78918e-13
4.12736e-06
-6.87051e-13
4.12736e-06
-4.49317e-13
4.12736e-06
-3.34201e-13
4.12736e-06
-4.56376e-13
4.12736e-06
-6.82184e-13
4.12736e-06
-7.63554e-13
4.12736e-06
-6.33122e-13
4.12736e-06
-4.22526e-13
4.12737e-06
-2.00924e-13
4.12737e-06
1.97427e-15
4.12737e-06
2.91774e-14
4.12737e-06
-1.67808e-13
4.12737e-06
-3.97305e-13
4.12737e-06
-4.86935e-13
4.12736e-06
-4.67988e-13
4.12737e-06
-4.48636e-13
4.12737e-06
-4.71274e-13
4.12737e-06
-5.05697e-13
4.12737e-06
-5.04803e-13
4.12737e-06
-4.3949e-13
4.12737e-06
-3.22473e-13
4.12737e-06
-1.66954e-13
4.12737e-06
-8.81351e-15
4.12737e-06
8.48249e-14
4.12737e-06
1.33522e-13
4.12737e-06
1.33771e-13
4.12737e-06
-3.10681e-15
4.12737e-06
-2.18981e-13
4.12737e-06
-3.57362e-13
4.12737e-06
-3.41509e-13
4.12737e-06
-3.0772e-13
4.12737e-06
-3.88273e-13
4.12737e-06
-3.78395e-13
4.12737e-06
-8.97856e-14
4.12737e-06
2.26072e-13
4.12737e-06
3.46215e-13
4.12737e-06
3.63006e-13
4.12737e-06
3.80045e-13
4.12737e-06
4.45982e-13
4.12737e-06
5.16717e-13
4.12737e-06
5.0453e-13
4.12737e-06
5.56083e-13
4.12737e-06
6.91599e-13
4.12737e-06
7.59236e-13
4.12737e-06
9.78583e-13
4.12737e-06
1.38627e-12
4.12736e-06
1.77405e-12
4.12736e-06
2.44427e-12
4.12736e-06
3.20216e-12
4.12736e-06
3.68359e-12
4.12736e-06
3.93527e-12
4.12736e-06
4.27857e-12
4.11251e-12
5.43671e-06
-1.54976e-12
5.43671e-06
-1.91736e-12
5.43671e-06
-1.77438e-12
5.43671e-06
-1.8274e-12
5.43671e-06
-1.5134e-12
5.43671e-06
-1.14132e-12
5.43671e-06
-8.58147e-13
5.4367e-06
-6.6897e-13
5.4367e-06
-6.21231e-13
5.4367e-06
-4.54622e-13
5.4367e-06
-2.76708e-13
5.4367e-06
-6.41563e-14
5.4367e-06
-1.37352e-13
5.4367e-06
-4.04004e-13
5.4367e-06
-3.88302e-13
5.4367e-06
-5.05466e-13
5.4367e-06
-4.7139e-13
5.4367e-06
-3.53199e-13
5.4367e-06
-3.33645e-13
5.4367e-06
-2.57267e-13
5.4367e-06
-1.05461e-13
5.4367e-06
-4.49111e-14
5.4367e-06
4.62875e-14
5.4367e-06
2.36907e-13
5.4367e-06
2.51567e-13
5.4367e-06
1.39073e-13
5.4367e-06
4.79633e-14
5.4367e-06
1.44841e-13
5.4367e-06
3.669e-13
5.4367e-06
4.71487e-13
5.4367e-06
4.65978e-13
5.4367e-06
4.84028e-13
5.4367e-06
4.78489e-13
5.4367e-06
4.02031e-13
5.4367e-06
3.32473e-13
5.4367e-06
2.8037e-13
5.4367e-06
2.48721e-13
5.4367e-06
2.64699e-13
5.4367e-06
2.82396e-13
5.4367e-06
2.75553e-13
5.4367e-06
2.61864e-13
5.4367e-06
2.08828e-13
5.4367e-06
8.27172e-14
5.4367e-06
-9.13223e-14
5.4367e-06
-1.82087e-13
5.4367e-06
-7.31602e-14
5.4367e-06
1.3927e-13
5.4367e-06
2.44501e-13
5.4367e-06
2.54272e-13
5.4367e-06
3.79176e-13
5.4367e-06
6.36994e-13
5.4367e-06
8.17078e-13
5.4367e-06
8.3264e-13
5.4367e-06
7.92748e-13
5.4367e-06
7.69144e-13
5.4367e-06
7.32568e-13
5.4367e-06
6.7608e-13
5.4367e-06
6.79221e-13
5.4367e-06
7.52151e-13
5.4367e-06
7.58035e-13
5.4367e-06
6.47916e-13
5.4367e-06
5.53058e-13
5.4367e-06
5.82309e-13
5.4367e-06
6.46759e-13
5.4367e-06
6.5858e-13
5.4367e-06
6.79102e-13
5.4367e-06
6.92702e-13
5.4367e-06
5.36057e-13
5.4367e-06
2.02358e-13
5.4367e-06
-9.80562e-14
5.4367e-06
-2.33689e-13
5.4367e-06
-2.7297e-13
5.4367e-06
-3.12649e-13
5.4367e-06
-3.38462e-13
5.4367e-06
-3.39114e-13
5.4367e-06
-4.11747e-13
5.4367e-06
-5.91697e-13
5.4367e-06
-7.50674e-13
5.4367e-06
-8.0561e-13
5.4367e-06
-8.17225e-13
5.4367e-06
-8.43054e-13
5.4367e-06
-8.93964e-13
5.4367e-06
-9.87879e-13
5.4367e-06
-1.13702e-12
5.4367e-06
-1.29624e-12
5.4367e-06
-1.36953e-12
5.4367e-06
-1.29769e-12
5.4367e-06
-1.13825e-12
5.4367e-06
-9.75815e-13
5.4367e-06
-8.45478e-13
5.4367e-06
-7.32468e-13
5.4367e-06
-6.2365e-13
5.4367e-06
-4.63001e-13
5.4367e-06
-2.49061e-13
5.4367e-06
-8.69388e-14
5.4367e-06
-4.84883e-14
5.4367e-06
-8.68888e-14
5.4367e-06
-1.25516e-13
5.4367e-06
-1.5904e-13
5.4367e-06
-1.81848e-13
5.4367e-06
-1.35297e-13
5.4367e-06
2.55201e-14
5.4367e-06
2.08689e-13
5.4367e-06
2.70288e-13
5.4367e-06
2.03151e-13
5.4367e-06
1.06985e-13
5.4367e-06
1.36186e-14
5.4367e-06
-8.96231e-14
5.4367e-06
-1.38488e-13
5.4367e-06
-7.17072e-14
5.4367e-06
2.22197e-14
5.4367e-06
-9.43917e-15
5.4367e-06
-1.63944e-13
5.4367e-06
-3.05186e-13
5.4367e-06
-3.87146e-13
5.4367e-06
-4.77152e-13
5.4367e-06
-5.81305e-13
5.4367e-06
-6.44711e-13
5.4367e-06
-6.64285e-13
5.4367e-06
-6.68174e-13
5.4367e-06
-6.31074e-13
5.4367e-06
-5.48075e-13
5.4367e-06
-4.89381e-13
5.4367e-06
-4.89646e-13
5.4367e-06
-5.17341e-13
5.4367e-06
-5.31363e-13
5.4367e-06
-5.45947e-13
5.4367e-06
-5.62852e-13
5.4367e-06
-5.80864e-13
5.4367e-06
-6.41026e-13
5.4367e-06
-7.65618e-13
5.4367e-06
-8.71246e-13
5.4367e-06
-8.51989e-13
5.4367e-06
-7.9312e-13
5.4367e-06
-8.65634e-13
5.4367e-06
-1.05449e-12
5.4367e-06
-1.20442e-12
5.4367e-06
-1.27263e-12
5.4367e-06
-1.3759e-12
5.4367e-06
-1.55754e-12
5.4367e-06
-1.65611e-12
5.4367e-06
-1.55948e-12
5.4367e-06
-1.3977e-12
5.4367e-06
-1.29281e-12
5.4367e-06
-1.17984e-12
5.4367e-06
-1.02598e-12
5.4367e-06
-9.27502e-13
5.4367e-06
-8.93363e-13
5.4367e-06
-8.07416e-13
5.4367e-06
-6.45619e-13
5.4367e-06
-5.21809e-13
5.4367e-06
-5.04363e-13
5.4367e-06
-4.84017e-13
5.4367e-06
-3.3394e-13
5.4367e-06
-1.52363e-13
5.4367e-06
-8.48542e-14
5.4367e-06
-8.26553e-14
5.4367e-06
-1.13074e-13
5.4367e-06
-2.22248e-13
5.4367e-06
-3.6215e-13
5.4367e-06
-4.43612e-13
5.4367e-06
-4.53306e-13
5.4367e-06
-4.37952e-13
5.4367e-06
-4.29224e-13
5.4367e-06
-4.33537e-13
5.4367e-06
-4.45447e-13
5.4367e-06
-4.20922e-13
5.4367e-06
-3.23447e-13
5.4367e-06
-1.6324e-13
5.4367e-06
1.52756e-14
5.4367e-06
6.21728e-14
5.4367e-06
-7.53109e-14
5.4367e-06
-2.21439e-13
5.4367e-06
-2.45642e-13
5.4367e-06
-2.06327e-13
5.4367e-06
-1.78041e-13
5.4367e-06
-1.53493e-13
5.4367e-06
-4.74112e-14
5.4367e-06
5.2592e-14
5.4367e-06
4.09154e-14
5.4367e-06
3.79968e-14
5.4367e-06
1.52242e-13
5.4367e-06
3.38026e-13
5.4367e-06
5.78617e-13
5.4367e-06
7.90096e-13
5.4367e-06
7.80801e-13
5.4367e-06
6.12201e-13
5.4367e-06
5.77337e-13
5.4367e-06
8.11635e-13
5.4367e-06
1.17243e-12
5.4367e-06
1.46018e-12
5.4367e-06
1.74646e-12
5.4367e-06
2.20291e-12
5.4367e-06
2.70341e-12
5.4367e-06
3.1853e-12
5.4367e-06
3.93534e-12
5.4367e-06
4.78476e-12
5.4367e-06
5.18255e-12
5.43669e-06
5.21152e-12
4.98205e-12
6.55746e-06
-1.26514e-12
6.55746e-06
-1.5182e-12
6.55746e-06
-1.45649e-12
6.55746e-06
-1.14321e-12
6.55746e-06
-9.55136e-13
6.55746e-06
-5.5388e-13
6.55746e-06
-3.73573e-13
6.55746e-06
-2.04522e-14
6.55746e-06
1.26246e-14
6.55746e-06
6.12548e-14
6.55746e-06
2.06989e-13
6.55746e-06
9.76953e-14
6.55746e-06
-3.80803e-14
6.55746e-06
-1.9209e-13
6.55746e-06
-1.79219e-13
6.55745e-06
-7.61857e-14
6.55745e-06
-2.17891e-13
6.55745e-06
-3.72586e-13
6.55745e-06
-4.02356e-13
6.55745e-06
-2.87463e-13
6.55745e-06
-6.27883e-14
6.55745e-06
4.32892e-14
6.55745e-06
1.53214e-13
6.55745e-06
2.70381e-13
6.55745e-06
2.67914e-13
6.55745e-06
3.29715e-13
6.55745e-06
4.88968e-13
6.55745e-06
5.21916e-13
6.55745e-06
4.80016e-13
6.55745e-06
4.52777e-13
6.55745e-06
3.93035e-13
6.55745e-06
3.89733e-13
6.55745e-06
4.40069e-13
6.55745e-06
3.51855e-13
6.55745e-06
2.22646e-13
6.55745e-06
2.09198e-13
6.55745e-06
2.32475e-13
6.55745e-06
2.15519e-13
6.55745e-06
1.90786e-13
6.55745e-06
1.61137e-13
6.55745e-06
1.04351e-13
6.55745e-06
-3.00704e-15
6.55746e-06
-8.85852e-14
6.55746e-06
-1.05106e-13
6.55746e-06
-1.35714e-13
6.55746e-06
-1.65706e-13
6.55745e-06
-6.15844e-14
6.55745e-06
1.45359e-13
6.55745e-06
2.93894e-13
6.55745e-06
3.77042e-13
6.55745e-06
4.77748e-13
6.55745e-06
5.20462e-13
6.55745e-06
4.46435e-13
6.55745e-06
3.90157e-13
6.55745e-06
4.89706e-13
6.55745e-06
6.55318e-13
6.55745e-06
6.93763e-13
6.55745e-06
6.13486e-13
6.55745e-06
6.09472e-13
6.55745e-06
7.25386e-13
6.55745e-06
8.25717e-13
6.55745e-06
8.63431e-13
6.55746e-06
8.93317e-13
6.55746e-06
8.63503e-13
6.55746e-06
6.80799e-13
6.55746e-06
4.57489e-13
6.55746e-06
3.56722e-13
6.55746e-06
2.93679e-13
6.55746e-06
1.17035e-13
6.55746e-06
-9.31965e-14
6.55746e-06
-1.414e-13
6.55746e-06
-3.5168e-14
6.55746e-06
-9.30682e-16
6.55746e-06
-1.20242e-13
6.55746e-06
-2.52585e-13
6.55746e-06
-2.95243e-13
6.55746e-06
-3.21506e-13
6.55746e-06
-4.08647e-13
6.55746e-06
-5.47081e-13
6.55746e-06
-7.06434e-13
6.55746e-06
-8.52131e-13
6.55746e-06
-9.63956e-13
6.55746e-06
-1.0665e-12
6.55746e-06
-1.18343e-12
6.55746e-06
-1.29376e-12
6.55746e-06
-1.33197e-12
6.55746e-06
-1.24535e-12
6.55746e-06
-1.06043e-12
6.55746e-06
-8.66239e-13
6.55746e-06
-7.17372e-13
6.55746e-06
-6.17891e-13
6.55746e-06
-5.33161e-13
6.55746e-06
-4.04788e-13
6.55746e-06
-2.17662e-13
6.55746e-06
-7.32743e-14
6.55746e-06
-8.44211e-14
6.55746e-06
-2.00923e-13
6.55746e-06
-2.44139e-13
6.55746e-06
-1.37543e-13
6.55746e-06
1.90161e-14
6.55746e-06
1.07585e-13
6.55746e-06
1.41095e-13
6.55746e-06
1.69039e-13
6.55746e-06
1.75758e-13
6.55746e-06
1.37918e-13
6.55746e-06
1.24778e-13
6.55746e-06
1.77848e-13
6.55746e-06
2.10434e-13
6.55746e-06
1.58901e-13
6.55746e-06
9.88529e-14
6.55746e-06
1.10692e-13
6.55746e-06
1.20851e-13
6.55746e-06
1.72393e-14
6.55746e-06
-1.60798e-13
6.55746e-06
-3.01484e-13
6.55746e-06
-3.91737e-13
6.55746e-06
-4.74408e-13
6.55746e-06
-5.45218e-13
6.55746e-06
-5.92386e-13
6.55746e-06
-6.33024e-13
6.55746e-06
-6.50035e-13
6.55745e-06
-6.03146e-13
6.55745e-06
-5.18373e-13
6.55746e-06
-4.67371e-13
6.55746e-06
-4.69038e-13
6.55746e-06
-4.93096e-13
6.55745e-06
-5.35039e-13
6.55745e-06
-5.9867e-13
6.55745e-06
-6.50875e-13
6.55745e-06
-6.72394e-13
6.55745e-06
-7.48295e-13
6.55745e-06
-9.0444e-13
6.55745e-06
-1.02948e-12
6.55745e-06
-1.05999e-12
6.55745e-06
-1.11995e-12
6.55745e-06
-1.29259e-12
6.55745e-06
-1.43185e-12
6.55745e-06
-1.35896e-12
6.55745e-06
-1.16425e-12
6.55745e-06
-1.1308e-12
6.55745e-06
-1.317e-12
6.55745e-06
-1.48582e-12
6.55745e-06
-1.49742e-12
6.55745e-06
-1.43687e-12
6.55745e-06
-1.34704e-12
6.55745e-06
-1.16692e-12
6.55745e-06
-9.32388e-13
6.55745e-06
-7.58643e-13
6.55745e-06
-6.64625e-13
6.55745e-06
-5.87374e-13
6.55745e-06
-4.93459e-13
6.55745e-06
-4.03394e-13
6.55745e-06
-3.1796e-13
6.55745e-06
-1.73788e-13
6.55745e-06
-1.60927e-14
6.55745e-06
-4.04646e-15
6.55745e-06
-1.22231e-13
6.55745e-06
-2.35179e-13
6.55745e-06
-3.09928e-13
6.55745e-06
-3.52925e-13
6.55745e-06
-3.6633e-13
6.55745e-06
-3.80144e-13
6.55745e-06
-4.04619e-13
6.55745e-06
-4.21264e-13
6.55745e-06
-4.10338e-13
6.55745e-06
-3.94888e-13
6.55745e-06
-3.60614e-13
6.55745e-06
-2.68426e-13
6.55745e-06
-1.56102e-13
6.55745e-06
-5.49807e-14
6.55745e-06
8.74209e-15
6.55745e-06
-1.65493e-14
6.55745e-06
-3.75539e-14
6.55745e-06
2.29021e-14
6.55745e-06
6.52366e-14
6.55745e-06
6.00567e-15
6.55745e-06
-8.38703e-14
6.55745e-06
-3.66166e-14
6.55745e-06
1.48573e-13
6.55745e-06
2.78996e-13
6.55745e-06
3.29993e-13
6.55745e-06
4.90944e-13
6.55745e-06
7.23739e-13
6.55745e-06
8.31472e-13
6.55745e-06
8.63499e-13
6.55745e-06
8.92682e-13
6.55745e-06
9.5602e-13
6.55745e-06
1.13116e-12
6.55745e-06
1.33576e-12
6.55745e-06
1.61213e-12
6.55745e-06
2.04512e-12
6.55745e-06
2.47372e-12
6.55745e-06
3.03515e-12
6.55745e-06
3.73366e-12
6.55745e-06
4.14227e-12
6.55745e-06
4.67559e-12
6.55745e-06
5.45055e-12
6.55745e-06
5.95627e-12
6.55745e-06
6.02703e-12
5.75814e-12
7.49031e-06
-1.05219e-13
7.49031e-06
-1.42713e-13
7.49031e-06
-2.58304e-13
7.49031e-06
-1.00197e-13
7.49031e-06
5.36778e-14
7.4903e-06
1.76117e-13
7.4903e-06
3.37613e-13
7.4903e-06
5.74568e-13
7.4903e-06
1.08646e-12
7.4903e-06
9.83684e-13
7.4903e-06
6.56998e-13
7.4903e-06
4.25041e-13
7.4903e-06
4.40921e-13
7.4903e-06
5.39013e-13
7.4903e-06
4.09894e-13
7.4903e-06
5.90363e-14
7.4903e-06
-1.7682e-13
7.4903e-06
-5.73084e-14
7.4903e-06
-2.01893e-14
7.4903e-06
-1.58071e-13
7.4903e-06
-8.11076e-14
7.4903e-06
2.87713e-14
7.4903e-06
7.09472e-14
7.4903e-06
3.10226e-13
7.4903e-06
4.8471e-13
7.4903e-06
4.1782e-13
7.4903e-06
3.5013e-13
7.4903e-06
3.67163e-13
7.4903e-06
4.26177e-13
7.4903e-06
4.70267e-13
7.4903e-06
4.33462e-13
7.4903e-06
3.47901e-13
7.4903e-06
2.47571e-13
7.4903e-06
1.23182e-13
7.4903e-06
3.85647e-14
7.4903e-06
2.05331e-14
7.4903e-06
-2.21786e-14
7.4903e-06
-7.21344e-14
7.4903e-06
-4.19145e-14
7.4903e-06
-1.05146e-14
7.4903e-06
-8.21383e-14
7.4903e-06
-2.39412e-13
7.4903e-06
-3.72237e-13
7.4903e-06
-3.73937e-13
7.4903e-06
-3.03174e-13
7.4903e-06
-2.95756e-13
7.4903e-06
-2.81205e-13
7.4903e-06
-9.54578e-14
7.4903e-06
1.45062e-13
7.4903e-06
2.61792e-13
7.4903e-06
3.17497e-13
7.4903e-06
4.28626e-13
7.4903e-06
5.7109e-13
7.4903e-06
6.7784e-13
7.4903e-06
7.63538e-13
7.4903e-06
8.66684e-13
7.4903e-06
8.95128e-13
7.4903e-06
7.62308e-13
7.4903e-06
6.26637e-13
7.4903e-06
6.82374e-13
7.4903e-06
8.31378e-13
7.4903e-06
8.66698e-13
7.4903e-06
8.02782e-13
7.4903e-06
7.61307e-13
7.4903e-06
7.02672e-13
7.4903e-06
5.58219e-13
7.4903e-06
4.20759e-13
7.4903e-06
3.73594e-13
7.4903e-06
3.46249e-13
7.4903e-06
2.48313e-13
7.4903e-06
1.33701e-13
7.4903e-06
1.01859e-13
7.4903e-06
1.07409e-13
7.4903e-06
4.17389e-14
7.4903e-06
-7.68281e-14
7.4903e-06
-1.60595e-13
7.4903e-06
-2.1221e-13
7.4903e-06
-2.84576e-13
7.4903e-06
-4.03493e-13
7.4903e-06
-5.84402e-13
7.4903e-06
-8.04905e-13
7.4903e-06
-9.81683e-13
7.4903e-06
-1.05451e-12
7.4903e-06
-1.03885e-12
7.4903e-06
-9.95989e-13
7.4903e-06
-9.7339e-13
7.4903e-06
-9.69129e-13
7.4903e-06
-9.67867e-13
7.4903e-06
-9.65206e-13
7.4903e-06
-9.15857e-13
7.4903e-06
-7.96406e-13
7.4903e-06
-6.59691e-13
7.4903e-06
-5.61906e-13
7.4903e-06
-4.74175e-13
7.4903e-06
-3.56343e-13
7.4903e-06
-2.55882e-13
7.4903e-06
-2.11876e-13
7.4903e-06
-1.74256e-13
7.4903e-06
-4.81045e-14
7.4903e-06
1.64294e-13
7.4903e-06
3.41658e-13
7.4903e-06
4.11681e-13
7.4903e-06
4.28466e-13
7.4903e-06
4.34985e-13
7.4903e-06
4.00437e-13
7.4903e-06
3.33855e-13
7.4903e-06
3.14673e-13
7.4903e-06
3.52457e-13
7.4903e-06
3.50865e-13
7.4903e-06
2.71155e-13
7.4903e-06
1.98655e-13
7.4903e-06
1.88049e-13
7.4903e-06
1.73584e-13
7.4903e-06
9.84245e-14
7.4903e-06
5.67861e-15
7.4903e-06
-6.70866e-14
7.4903e-06
-1.58253e-13
7.4903e-06
-2.86534e-13
7.4903e-06
-4.22127e-13
7.4903e-06
-5.43249e-13
7.4903e-06
-6.20637e-13
7.4903e-06
-6.13127e-13
7.4903e-06
-5.44611e-13
7.4903e-06
-5.17099e-13
7.4903e-06
-5.79128e-13
7.4903e-06
-6.65671e-13
7.4903e-06
-7.11901e-13
7.4903e-06
-7.3189e-13
7.4903e-06
-7.56379e-13
7.4903e-06
-7.34829e-13
7.4903e-06
-6.85476e-13
7.4903e-06
-7.35162e-13
7.4903e-06
-9.12359e-13
7.4903e-06
-1.06184e-12
7.4903e-06
-1.08295e-12
7.4903e-06
-1.0679e-12
7.4903e-06
-1.11654e-12
7.49029e-06
-1.15315e-12
7.49029e-06
-1.07202e-12
7.49029e-06
-9.8498e-13
7.49029e-06
-1.08329e-12
7.49029e-06
-1.31043e-12
7.49029e-06
-1.4494e-12
7.49029e-06
-1.42857e-12
7.49029e-06
-1.30825e-12
7.49029e-06
-1.0955e-12
7.49029e-06
-8.04463e-13
7.49029e-06
-5.63606e-13
7.49029e-06
-4.75861e-13
7.49029e-06
-4.85562e-13
7.49029e-06
-4.48556e-13
7.49029e-06
-2.93286e-13
7.49029e-06
-1.01913e-13
7.49029e-06
3.50641e-14
7.49029e-06
8.7072e-14
7.49029e-06
-1.15024e-14
7.49029e-06
-2.31921e-13
7.49029e-06
-4.03997e-13
7.49029e-06
-4.5132e-13
7.49029e-06
-4.07314e-13
7.49029e-06
-3.19082e-13
7.49029e-06
-2.49815e-13
7.49029e-06
-2.51576e-13
7.49029e-06
-3.03256e-13
7.49029e-06
-3.17708e-13
7.49029e-06
-2.63363e-13
7.49029e-06
-1.9315e-13
7.49029e-06
-1.24152e-13
7.49029e-06
-1.02193e-13
7.49029e-06
-1.2271e-13
7.49029e-06
-7.77294e-14
7.49029e-06
1.88803e-14
7.49029e-06
7.76665e-14
7.49029e-06
7.2009e-14
7.49029e-06
1.9764e-14
7.49029e-06
-2.41692e-14
7.49029e-06
-1.22345e-14
7.49029e-06
3.23514e-14
7.49029e-06
1.27349e-13
7.49029e-06
3.49081e-13
7.49029e-06
5.85094e-13
7.49029e-06
7.03254e-13
7.49029e-06
7.65518e-13
7.49029e-06
8.42387e-13
7.49029e-06
1.01406e-12
7.49029e-06
1.28278e-12
7.49029e-06
1.50605e-12
7.49029e-06
1.63294e-12
7.49029e-06
1.63459e-12
7.49029e-06
1.643e-12
7.49029e-06
1.95365e-12
7.49029e-06
2.49844e-12
7.49029e-06
3.15315e-12
7.49029e-06
3.99476e-12
7.49029e-06
4.85075e-12
7.49029e-06
5.52862e-12
7.49029e-06
6.09928e-12
7.49029e-06
6.32587e-12
7.49029e-06
6.32515e-12
5.99612e-12
8.23584e-06
1.70898e-12
8.23583e-06
1.04142e-12
8.23583e-06
1.32896e-12
8.23583e-06
1.51898e-12