/*--------------------------------*- C++ -*----------------------------------*\
| =========                 |                                                 |
| \\      /  F ield         | OpenFOAM: The Open Source CFD Toolbox           |
|  \\    /   O peration     | Version:  2406                                  |
|   \\  /    A nd           | Website:  www.openfoam.com                      |
|    \\/     M anipulation  |                                                 |
\*---------------------------------------------------------------------------*/
FoamFile
{
    version     2.0;
    format      ascii;
    arch        "LSB;label=32;scalar=64";
    class       volVectorField;
    location    "0.4";
    object      U;
}
// * * * * * * * * * * * * * * * * * * * * * * * * * * * * * * * * * * * * * //

dimensions      [0 1 -1 0 0 0 0];

internalField   nonuniform List<vector> 
4000
(
(0.0187975 -4.99647e-09 0)
(0.0187975 -5.19845e-09 0)
(0.0187975 -3.6968e-09 0)
(0.0187976 -6.29797e-09 0)
(0.0187976 -6.44809e-09 0)
(0.0187976 -3.99103e-09 0)
(0.0187976 -1.44887e-09 0)
(0.0187976 -3.11392e-10 0)
(0.0187976 5.36274e-10 0)
(0.0187976 1.08363e-09 0)
(0.0187976 -3.94912e-10 0)
(0.0187976 -1.04108e-09 0)
(0.0187976 -1.21172e-09 0)
(0.0187976 -2.40599e-09 0)
(0.0187976 -1.83583e-09 0)
(0.0187976 -1.84348e-09 0)
(0.0187976 -7.80434e-10 0)
(0.0187976 -1.57125e-09 0)
(0.0187976 -1.71891e-09 0)
(0.0187976 -9.00401e-10 0)
(0.0187976 -7.49119e-10 0)
(0.0187976 1.75257e-10 0)
(0.0187976 -1.23654e-09 0)
(0.0187976 -2.56388e-09 0)
(0.0187976 -3.31103e-10 0)
(0.0187976 2.27864e-09 0)
(0.0187976 1.53297e-09 0)
(0.0187976 6.27606e-10 0)
(0.0187976 1.39994e-09 0)
(0.0187976 1.35054e-09 0)
(0.0187976 -2.89562e-10 0)
(0.0187976 -9.80175e-10 0)
(0.0187976 5.04172e-10 0)
(0.0187976 2.19475e-09 0)
(0.0187976 2.07097e-09 0)
(0.0187975 1.26443e-09 0)
(0.0187975 1.79243e-09 0)
(0.0187975 2.44045e-09 0)
(0.0187975 1.72163e-09 0)
(0.0187975 8.89718e-10 0)
(0.0187975 1.18996e-09 0)
(0.0187975 1.76599e-09 0)
(0.0187975 1.41697e-09 0)
(0.0187975 7.79753e-10 0)
(0.0187975 7.99549e-10 0)
(0.0187975 1.40167e-09 0)
(0.0187975 2.58926e-09 0)
(0.0187975 4.06512e-09 0)
(0.0187975 4.75983e-09 0)
(0.0187975 4.43659e-09 0)
(0.0187975 4.08486e-09 0)
(0.0187975 4.14673e-09 0)
(0.0187975 3.70553e-09 0)
(0.0187975 2.36977e-09 0)
(0.0187975 1.30201e-09 0)
(0.0187975 1.23353e-09 0)
(0.0187975 1.55163e-09 0)
(0.0187975 1.60345e-09 0)
(0.0187975 1.69273e-09 0)
(0.0187975 2.47954e-09 0)
(0.0187974 3.60163e-09 0)
(0.0187974 3.72038e-09 0)
(0.0187974 2.26883e-09 0)
(0.0187974 5.21274e-10 0)
(0.0187974 5.35255e-11 0)
(0.0187974 7.61757e-10 0)
(0.0187974 1.67775e-09 0)
(0.0187974 2.53159e-09 0)
(0.0187974 2.9698e-09 0)
(0.0187974 2.20168e-09 0)
(0.0187974 6.28739e-10 0)
(0.0187974 -4.51682e-10 0)
(0.0187974 -8.24695e-10 0)
(0.0187974 -1.34872e-09 0)
(0.0187974 -2.23336e-09 0)
(0.0187974 -2.4249e-09 0)
(0.0187974 -1.5628e-09 0)
(0.0187975 -1.13427e-09 0)
(0.0187975 -2.17882e-09 0)
(0.0187975 -3.73836e-09 0)
(0.0187975 -4.68804e-09 0)
(0.0187975 -4.94216e-09 0)
(0.0187975 -4.71187e-09 0)
(0.0187975 -4.3553e-09 0)
(0.0187975 -4.5998e-09 0)
(0.0187975 -5.67094e-09 0)
(0.0187975 -6.67095e-09 0)
(0.0187975 -6.53725e-09 0)
(0.0187976 -5.42789e-09 0)
(0.0187976 -4.56381e-09 0)
(0.0187976 -4.40178e-09 0)
(0.0187976 -4.23991e-09 0)
(0.0187976 -3.56357e-09 0)
(0.0187976 -2.52368e-09 0)
(0.0187976 -1.38055e-09 0)
(0.0187976 -6.81701e-10 0)
(0.0187976 -9.4592e-10 0)
(0.0187976 -1.74998e-09 0)
(0.0187976 -1.85261e-09 0)
(0.0187976 -8.77094e-10 0)
(0.0187976 2.00611e-10 0)
(0.0187976 4.07692e-10 0)
(0.0187976 -4.48753e-11 0)
(0.0187976 -2.43715e-10 0)
(0.0187976 -6.37345e-11 0)
(0.0187976 -1.33031e-10 0)
(0.0187976 -5.73469e-10 0)
(0.0187976 -1.19746e-09 0)
(0.0187976 -2.1072e-09 0)
(0.0187976 -3.00555e-09 0)
(0.0187976 -2.93141e-09 0)
(0.0187976 -1.75018e-09 0)
(0.0187976 -1.01331e-09 0)
(0.0187976 -2.14256e-09 0)
(0.0187976 -4.46626e-09 0)
(0.0187976 -6.14502e-09 0)
(0.0187976 -6.44479e-09 0)
(0.0187976 -6.0423e-09 0)
(0.0187976 -5.43739e-09 0)
(0.0187976 -4.78883e-09 0)
(0.0187977 -4.42332e-09 0)
(0.0187977 -4.30056e-09 0)
(0.0187977 -3.91918e-09 0)
(0.0187977 -3.31009e-09 0)
(0.0187977 -3.00485e-09 0)
(0.0187977 -2.96573e-09 0)
(0.0187977 -2.54494e-09 0)
(0.0187977 -1.51871e-09 0)
(0.0187977 -3.91684e-10 0)
(0.0187977 2.57698e-10 0)
(0.0187977 1.71101e-10 0)
(0.0187977 -6.40638e-10 0)
(0.0187977 -1.69652e-09 0)
(0.0187977 -1.92494e-09 0)
(0.0187977 -9.85506e-10 0)
(0.0187977 -2.19163e-10 0)
(0.0187977 -8.34086e-10 0)
(0.0187977 -2.26777e-09 0)
(0.0187977 -3.3665e-09 0)
(0.0187977 -3.94673e-09 0)
(0.0187977 -4.54843e-09 0)
(0.0187977 -5.20964e-09 0)
(0.0187977 -4.98701e-09 0)
(0.0187977 -3.7201e-09 0)
(0.0187977 -2.74964e-09 0)
(0.0187977 -2.66804e-09 0)
(0.0187977 -2.73934e-09 0)
(0.0187977 -2.616e-09 0)
(0.0187977 -2.45794e-09 0)
(0.0187977 -1.81687e-09 0)
(0.0187977 -2.32323e-10 0)
(0.0187977 1.29742e-09 0)
(0.0187977 1.02462e-09 0)
(0.0187977 -1.10474e-09 0)
(0.0187977 -3.01305e-09 0)
(0.0187977 -3.1456e-09 0)
(0.0187977 -2.17581e-09 0)
(0.0187977 -1.00264e-09 0)
(0.0187977 3.5529e-10 0)
(0.0187977 1.02894e-09 0)
(0.0187977 2.11464e-11 0)
(0.0187977 -1.703e-09 0)
(0.0187977 -2.45322e-09 0)
(0.0187977 -2.07667e-09 0)
(0.0187977 -1.61295e-09 0)
(0.0187978 -1.59133e-09 0)
(0.0187978 -1.56837e-09 0)
(0.0187978 -1.02629e-09 0)
(0.0187978 -1.19888e-10 0)
(0.0187978 5.99196e-10 0)
(0.0187978 9.06204e-10 0)
(0.0187978 6.03721e-10 0)
(0.0187978 -2.76975e-10 0)
(0.0187978 -8.30937e-10 0)
(0.0187978 -8.41913e-10 0)
(0.0187978 -1.19187e-09 0)
(0.0187978 -2.40215e-09 0)
(0.0187978 -3.67774e-09 0)
(0.0187978 -3.44235e-09 0)
(0.0187978 -2.45347e-09 0)
(0.0187978 -3.17542e-09 0)
(0.0187978 -4.60754e-09 0)
(0.0187978 -4.15709e-09 0)
(0.0187978 -2.3748e-09 0)
(0.0187978 -7.95277e-10 0)
(0.0187978 -2.37504e-10 0)
(0.0187978 -8.24032e-10 0)
(0.0187978 -1.33587e-09 0)
(0.0187978 -1.62323e-09 0)
(0.0187978 -1.76129e-09 0)
(0.0187978 -1.17415e-09 0)
(0.0187978 -1.22626e-09 0)
(0.0187978 -1.62674e-09 0)
(0.0187978 -7.76497e-11 0)
(0.0187978 1.00352e-09 0)
(0.0187978 1.07409e-09 0)
(0.0187978 4.49658e-09 0)
(0.0187978 1.20493e-08 0)
(0.0187978 1.86321e-08 0)
(0.0187977 1.61464e-08 0)
(0.0525736 -1.56906e-08 0)
(0.0525736 -2.1037e-08 0)
(0.0525736 -2.11444e-08 0)
(0.0525736 -2.0688e-08 0)
(0.0525737 -2.13953e-08 0)
(0.0525737 -1.60498e-08 0)
(0.0525737 -8.41681e-09 0)
(0.0525737 -4.70714e-09 0)
(0.0525737 -1.63582e-09 0)
(0.0525737 1.36281e-09 0)
(0.0525737 -3.22293e-09 0)
(0.0525737 -5.49029e-09 0)
(0.0525737 -3.50132e-09 0)
(0.0525737 -4.22653e-09 0)
(0.0525737 -5.67645e-09 0)
(0.0525737 -6.91567e-09 0)
(0.0525737 -6.25403e-09 0)
(0.0525737 -7.1461e-09 0)
(0.0525737 -5.77475e-09 0)
(0.0525737 -3.04412e-09 0)
(0.0525737 -3.60959e-09 0)
(0.0525737 -1.86701e-09 0)
(0.0525737 1.20988e-10 0)
(0.0525737 1.29373e-09 0)
(0.0525737 4.8062e-09 0)
(0.0525737 6.38277e-09 0)
(0.0525737 2.61172e-09 0)
(0.0525737 -4.17511e-10 0)
(0.0525737 2.65245e-10 0)
(0.0525737 1.59428e-09 0)
(0.0525737 1.69603e-09 0)
(0.0525737 1.43377e-09 0)
(0.0525737 2.24854e-09 0)
(0.0525737 4.55767e-09 0)
(0.0525736 5.64725e-09 0)
(0.0525736 4.381e-09 0)
(0.0525736 4.08875e-09 0)
(0.0525736 5.15264e-09 0)
(0.0525736 5.49413e-09 0)
(0.0525736 5.61734e-09 0)
(0.0525737 5.90708e-09 0)
(0.0525737 5.21223e-09 0)
(0.0525737 3.23222e-09 0)
(0.0525736 1.94528e-09 0)
(0.0525736 2.88899e-09 0)
(0.0525736 4.90801e-09 0)
(0.0525736 6.65405e-09 0)
(0.0525736 7.71994e-09 0)
(0.0525736 7.66047e-09 0)
(0.0525736 6.62557e-09 0)
(0.0525736 5.90354e-09 0)
(0.0525736 6.61496e-09 0)
(0.0525736 7.69858e-09 0)
(0.0525736 7.42067e-09 0)
(0.0525736 6.71859e-09 0)
(0.0525735 7.56738e-09 0)
(0.0525735 9.63095e-09 0)
(0.0525735 1.08731e-08 0)
(0.0525735 1.00813e-08 0)
(0.0525735 8.34137e-09 0)
(0.0525735 7.41823e-09 0)
(0.0525735 6.80387e-09 0)
(0.0525735 4.82767e-09 0)
(0.0525735 2.09944e-09 0)
(0.0525735 8.35244e-10 0)
(0.0525735 1.32338e-09 0)
(0.0525735 2.37418e-09 0)
(0.0525735 4.06603e-09 0)
(0.0525735 5.9662e-09 0)
(0.0525735 5.45976e-09 0)
(0.0525735 1.82886e-09 0)
(0.0525735 -1.86792e-09 0)
(0.0525735 -3.1207e-09 0)
(0.0525735 -2.80366e-09 0)
(0.0525735 -3.02347e-09 0)
(0.0525735 -3.87637e-09 0)
(0.0525735 -4.5627e-09 0)
(0.0525735 -6.35533e-09 0)
(0.0525735 -1.03894e-08 0)
(0.0525736 -1.47072e-08 0)
(0.0525736 -1.70747e-08 0)
(0.0525736 -1.77013e-08 0)
(0.0525736 -1.72805e-08 0)
(0.0525736 -1.58943e-08 0)
(0.0525736 -1.43924e-08 0)
(0.0525736 -1.41814e-08 0)
(0.0525736 -1.52832e-08 0)
(0.0525736 -1.57894e-08 0)
(0.0525737 -1.40726e-08 0)
(0.0525737 -1.11841e-08 0)
(0.0525737 -8.87904e-09 0)
(0.0525737 -7.38947e-09 0)
(0.0525737 -6.46183e-09 0)
(0.0525737 -6.10654e-09 0)
(0.0525737 -5.54915e-09 0)
(0.0525737 -4.16666e-09 0)
(0.0525737 -2.95191e-09 0)
(0.0525737 -3.01887e-09 0)
(0.0525737 -3.55023e-09 0)
(0.0525737 -3.14818e-09 0)
(0.0525737 -1.94985e-09 0)
(0.0525737 -1.22976e-09 0)
(0.0525737 -1.28639e-09 0)
(0.0525737 -9.77766e-10 0)
(0.0525737 5.939e-11 0)
(0.0525737 6.95541e-10 0)
(0.0525737 5.65295e-10 0)
(0.0525737 2.82585e-10 0)
(0.0525737 -5.89057e-10 0)
(0.0525737 -2.96386e-09 0)
(0.0525737 -5.7997e-09 0)
(0.0525737 -7.08123e-09 0)
(0.0525737 -7.21988e-09 0)
(0.0525737 -8.66219e-09 0)
(0.0525737 -1.18466e-08 0)
(0.0525737 -1.4334e-08 0)
(0.0525737 -1.43986e-08 0)
(0.0525737 -1.29838e-08 0)
(0.0525737 -1.12376e-08 0)
(0.0525737 -9.53282e-09 0)
(0.0525737 -8.66098e-09 0)
(0.0525738 -8.94485e-09 0)
(0.0525738 -9.01578e-09 0)
(0.0525738 -7.87327e-09 0)
(0.0525738 -6.62608e-09 0)
(0.0525738 -6.50233e-09 0)
(0.0525738 -6.86445e-09 0)
(0.0525738 -6.4287e-09 0)
(0.0525738 -5.19325e-09 0)
(0.0525738 -4.10718e-09 0)
(0.0525738 -3.77764e-09 0)
(0.0525738 -4.54333e-09 0)
(0.0525738 -6.48203e-09 0)
(0.0525738 -8.10758e-09 0)
(0.0525738 -7.53278e-09 0)
(0.0525738 -6.09995e-09 0)
(0.0525738 -7.17478e-09 0)
(0.0525738 -1.11275e-08 0)
(0.0525738 -1.48708e-08 0)
(0.0525738 -1.59868e-08 0)
(0.0525738 -1.5525e-08 0)
(0.0525738 -1.59973e-08 0)
(0.0525738 -1.69445e-08 0)
(0.0525738 -1.61971e-08 0)
(0.0525738 -1.42238e-08 0)
(0.0525738 -1.23479e-08 0)
(0.0525738 -1.00522e-08 0)
(0.0525738 -7.42552e-09 0)
(0.0525738 -6.05968e-09 0)
(0.0525739 -6.09027e-09 0)
(0.0525739 -5.65939e-09 0)
(0.0525739 -4.22889e-09 0)
(0.0525739 -3.75412e-09 0)
(0.0525739 -5.44937e-09 0)
(0.0525739 -7.09826e-09 0)
(0.0525739 -6.00654e-09 0)
(0.0525739 -3.43277e-09 0)
(0.0525739 -1.80386e-09 0)
(0.0525739 -7.31965e-10 0)
(0.0525739 -2.25321e-10 0)
(0.0525739 -2.05524e-09 0)
(0.0525739 -5.54354e-09 0)
(0.0525739 -7.66425e-09 0)
(0.0525739 -7.42768e-09 0)
(0.0525739 -6.55354e-09 0)
(0.0525739 -6.23673e-09 0)
(0.0525739 -5.77276e-09 0)
(0.0525739 -4.10301e-09 0)
(0.0525739 -1.40279e-09 0)
(0.0525739 8.17483e-10 0)
(0.0525739 2.03488e-09 0)
(0.0525739 2.4934e-09 0)
(0.0525739 1.18105e-09 0)
(0.0525739 -1.7291e-09 0)
(0.0525739 -4.63264e-09 0)
(0.0525739 -6.66555e-09 0)
(0.0525739 -8.0531e-09 0)
(0.0525739 -9.22535e-09 0)
(0.0525739 -8.50481e-09 0)
(0.0525739 -5.40676e-09 0)
(0.0525739 -4.27596e-09 0)
(0.0525739 -5.94709e-09 0)
(0.0525739 -5.88168e-09 0)
(0.052574 -3.67314e-09 0)
(0.052574 -1.25432e-09 0)
(0.052574 1.04388e-09 0)
(0.052574 2.09549e-09 0)
(0.052574 1.809e-09 0)
(0.052574 3.92656e-10 0)
(0.052574 -1.07704e-09 0)
(0.052574 2.61371e-10 0)
(0.052574 3.13587e-09 0)
(0.052574 5.36486e-09 0)
(0.052574 8.69674e-09 0)
(0.0525739 1.1578e-08 0)
(0.0525739 1.38505e-08 0)
(0.0525739 2.06387e-08 0)
(0.0525739 3.54641e-08 0)
(0.0525738 4.91398e-08 0)
(0.0525738 4.77338e-08 0)
(0.0825472 -3.37392e-08 0)
(0.0825472 -4.04646e-08 0)
(0.0825472 -4.32933e-08 0)
(0.0825472 -3.83903e-08 0)
(0.0825472 -3.37316e-08 0)
(0.0825472 -2.83886e-08 0)
(0.0825472 -2.08814e-08 0)
(0.0825472 -1.46837e-08 0)
(0.0825472 -7.62965e-09 0)
(0.0825472 -3.67537e-09 0)
(0.0825472 -3.95385e-09 0)
(0.0825472 -4.96831e-09 0)
(0.0825472 -5.05699e-09 0)
(0.0825472 -5.20979e-09 0)
(0.0825472 -8.15224e-09 0)
(0.0825472 -1.06041e-08 0)
(0.0825472 -9.89105e-09 0)
(0.0825472 -9.11562e-09 0)
(0.0825472 -7.17354e-09 0)
(0.0825472 -4.70493e-09 0)
(0.0825472 -6.58333e-09 0)
(0.0825472 -3.98864e-09 0)
(0.0825472 3.95333e-09 0)
(0.0825472 7.29481e-09 0)
(0.0825472 7.42272e-09 0)
(0.0825472 7.08517e-09 0)
(0.0825472 4.43364e-09 0)
(0.0825472 6.99756e-10 0)
(0.0825472 -1.25842e-09 0)
(0.0825472 1.3148e-10 0)
(0.0825472 3.60843e-09 0)
(0.0825472 5.39753e-09 0)
(0.0825472 4.86835e-09 0)
(0.0825472 5.99861e-09 0)
(0.0825472 8.72767e-09 0)
(0.0825472 8.4634e-09 0)
(0.0825472 5.66733e-09 0)
(0.0825472 4.53456e-09 0)
(0.0825472 5.85044e-09 0)
(0.0825472 7.41522e-09 0)
(0.0825472 7.10997e-09 0)
(0.0825472 5.3029e-09 0)
(0.0825472 3.74517e-09 0)
(0.0825472 3.47025e-09 0)
(0.0825472 4.66516e-09 0)
(0.0825472 6.15826e-09 0)
(0.0825472 6.59681e-09 0)
(0.0825472 6.31683e-09 0)
(0.0825472 6.44627e-09 0)
(0.0825472 7.172e-09 0)
(0.0825472 7.81857e-09 0)
(0.0825471 8.69289e-09 0)
(0.0825471 1.05466e-08 0)
(0.0825471 1.23685e-08 0)
(0.0825471 1.30167e-08 0)
(0.0825471 1.34671e-08 0)
(0.0825471 1.5092e-08 0)
(0.0825471 1.72159e-08 0)
(0.0825471 1.7314e-08 0)
(0.0825471 1.41488e-08 0)
(0.0825471 9.83308e-09 0)
(0.0825471 7.18723e-09 0)
(0.0825471 6.34038e-09 0)
(0.0825471 5.96116e-09 0)
(0.0825471 6.12941e-09 0)
(0.0825471 7.12666e-09 0)
(0.0825471 7.48809e-09 0)
(0.0825471 6.73243e-09 0)
(0.0825471 6.22015e-09 0)
(0.0825471 5.43697e-09 0)
(0.0825471 2.33587e-09 0)
(0.0825471 -2.42555e-09 0)
(0.0825471 -5.59604e-09 0)
(0.0825471 -5.64809e-09 0)
(0.0825471 -4.98866e-09 0)
(0.0825471 -6.49126e-09 0)
(0.0825471 -9.53804e-09 0)
(0.0825471 -1.24321e-08 0)
(0.0825472 -1.54176e-08 0)
(0.0825472 -1.84798e-08 0)
(0.0825472 -2.05658e-08 0)
(0.0825472 -2.1997e-08 0)
(0.0825472 -2.3729e-08 0)
(0.0825472 -2.50926e-08 0)
(0.0825472 -2.46955e-08 0)
(0.0825472 -2.27065e-08 0)
(0.0825472 -2.10183e-08 0)
(0.0825472 -2.05364e-08 0)
(0.0825472 -1.96598e-08 0)
(0.0825472 -1.68957e-08 0)
(0.0825472 -1.30691e-08 0)
(0.0825472 -9.65875e-09 0)
(0.0825472 -7.3233e-09 0)
(0.0825472 -6.36012e-09 0)
(0.0825472 -6.12986e-09 0)
(0.0825472 -5.01545e-09 0)
(0.0825472 -2.76336e-09 0)
(0.0825472 -1.20719e-09 0)
(0.0825472 -1.61543e-09 0)
(0.0825472 -2.88953e-09 0)
(0.0825472 -3.14713e-09 0)
(0.0825472 -2.15578e-09 0)
(0.0825472 -1.0244e-09 0)
(0.0825472 -3.38629e-11 0)
(0.0825472 1.27251e-09 0)
(0.0825472 2.16898e-09 0)
(0.0825472 1.67192e-09 0)
(0.0825472 6.92391e-10 0)
(0.0825472 3.71477e-10 0)
(0.0825472 -5.42183e-10 0)
(0.0825472 -3.79546e-09 0)
(0.0825472 -8.26455e-09 0)
(0.0825472 -1.13596e-08 0)
(0.0825472 -1.28844e-08 0)
(0.0825472 -1.46066e-08 0)
(0.0825472 -1.65702e-08 0)
(0.0825472 -1.71599e-08 0)
(0.0825472 -1.61558e-08 0)
(0.0825472 -1.46646e-08 0)
(0.0825472 -1.30133e-08 0)
(0.0825472 -1.15237e-08 0)
(0.0825472 -1.11806e-08 0)
(0.0825472 -1.17776e-08 0)
(0.0825472 -1.15134e-08 0)
(0.0825472 -9.5889e-09 0)
(0.0825472 -7.45287e-09 0)
(0.0825472 -6.73214e-09 0)
(0.0825472 -7.44503e-09 0)
(0.0825472 -8.81033e-09 0)
(0.0825472 -1.02885e-08 0)
(0.0825472 -1.12463e-08 0)
(0.0825472 -1.11878e-08 0)
(0.0825472 -1.10719e-08 0)
(0.0825472 -1.21953e-08 0)
(0.0825472 -1.3734e-08 0)
(0.0825472 -1.46897e-08 0)
(0.0825472 -1.65619e-08 0)
(0.0825472 -2.07969e-08 0)
(0.0825473 -2.55839e-08 0)
(0.0825473 -2.73028e-08 0)
(0.0825473 -2.52391e-08 0)
(0.0825473 -2.31995e-08 0)
(0.0825473 -2.3927e-08 0)
(0.0825473 -2.49712e-08 0)
(0.0825473 -2.35557e-08 0)
(0.0825473 -2.03905e-08 0)
(0.0825473 -1.64642e-08 0)
(0.0825473 -1.1763e-08 0)
(0.0825473 -7.88489e-09 0)
(0.0825473 -7.36862e-09 0)
(0.0825473 -9.95015e-09 0)
(0.0825473 -1.2411e-08 0)
(0.0825473 -1.22259e-08 0)
(0.0825473 -1.00033e-08 0)
(0.0825473 -7.30993e-09 0)
(0.0825473 -3.84507e-09 0)
(0.0825473 -3.75917e-10 0)
(0.0825473 7.02847e-12 0)
(0.0825473 -2.75004e-09 0)
(0.0825473 -5.47086e-09 0)
(0.0825473 -6.94386e-09 0)
(0.0825473 -7.97491e-09 0)
(0.0825473 -9.0321e-09 0)
(0.0825473 -9.83127e-09 0)
(0.0825473 -1.02268e-08 0)
(0.0825473 -1.00928e-08 0)
(0.0825473 -8.81294e-09 0)
(0.0825473 -6.2265e-09 0)
(0.0825473 -2.75342e-09 0)
(0.0825473 3.93864e-10 0)
(0.0825473 2.20419e-09 0)
(0.0825473 3.22116e-09 0)
(0.0825473 2.55724e-09 0)
(0.0825473 -1.39384e-09 0)
(0.0825473 -6.76176e-09 0)
(0.0825473 -9.98296e-09 0)
(0.0825473 -9.89978e-09 0)
(0.0825473 -9.25665e-09 0)
(0.0825473 -9.76821e-09 0)
(0.0825473 -7.93482e-09 0)
(0.0825473 -2.9783e-09 0)
(0.0825473 5.40833e-10 0)
(0.0825473 1.59965e-09 0)
(0.0825473 2.00997e-09 0)
(0.0825473 2.57244e-09 0)
(0.0825474 4.75029e-09 0)
(0.0825474 7.38814e-09 0)
(0.0825474 7.64113e-09 0)
(0.0825473 6.86107e-09 0)
(0.0825473 6.87268e-09 0)
(0.0825473 8.15368e-09 0)
(0.0825473 1.31667e-08 0)
(0.0825473 2.01517e-08 0)
(0.0825473 2.60244e-08 0)
(0.0825473 3.48501e-08 0)
(0.0825473 4.5147e-08 0)
(0.0825472 5.38471e-08 0)
(0.0825472 6.24576e-08 0)
(0.0825472 7.27963e-08 0)
(0.0825472 7.2649e-08 0)
(0.108734 -4.01726e-08 0)
(0.108734 -4.48581e-08 0)
(0.108734 -4.50105e-08 0)
(0.108734 -4.30148e-08 0)
(0.108734 -3.4942e-08 0)
(0.108734 -2.91644e-08 0)
(0.108734 -2.33657e-08 0)
(0.108734 -1.73502e-08 0)
(0.108734 -1.20098e-08 0)
(0.108734 -8.93244e-09 0)
(0.108734 -4.94545e-09 0)
(0.108734 -1.91632e-09 0)
(0.108734 -4.35459e-09 0)
(0.108734 -7.60048e-09 0)
(0.108734 -8.90803e-09 0)
(0.108734 -1.04591e-08 0)
(0.108734 -8.77815e-09 0)
(0.108734 -6.74352e-09 0)
(0.108734 -5.87508e-09 0)
(0.108734 -5.12563e-09 0)
(0.108734 -4.97519e-09 0)
(0.108734 -2.61989e-09 0)
(0.108734 2.76974e-09 0)
(0.108734 5.04777e-09 0)
(0.108734 4.5692e-09 0)
(0.108734 4.55294e-09 0)
(0.108734 3.73594e-09 0)
(0.108734 3.32787e-09 0)
(0.108734 4.35509e-09 0)
(0.108734 5.21359e-09 0)
(0.108734 6.29477e-09 0)
(0.108734 7.82271e-09 0)
(0.108734 7.98987e-09 0)
(0.108734 7.67208e-09 0)
(0.108734 8.4843e-09 0)
(0.108734 8.13651e-09 0)
(0.108734 6.0725e-09 0)
(0.108734 4.98914e-09 0)
(0.108734 5.18206e-09 0)
(0.108734 5.42735e-09 0)
(0.108734 5.18975e-09 0)
(0.108734 4.35704e-09 0)
(0.108734 2.99863e-09 0)
(0.108734 1.25883e-09 0)
(0.108734 5.12678e-10 0)
(0.108734 1.97489e-09 0)
(0.108734 4.28217e-09 0)
(0.108734 5.57279e-09 0)
(0.108734 6.63702e-09 0)
(0.108734 9.23333e-09 0)
(0.108734 1.22882e-08 0)
(0.108734 1.3736e-08 0)
(0.108734 1.40713e-08 0)
(0.108734 1.45636e-08 0)
(0.108734 1.48208e-08 0)
(0.108734 1.42911e-08 0)
(0.108734 1.38925e-08 0)
(0.108734 1.48608e-08 0)
(0.108734 1.62626e-08 0)
(0.108734 1.54963e-08 0)
(0.108734 1.23671e-08 0)
(0.108734 9.89309e-09 0)
(0.108734 9.83381e-09 0)
(0.108734 1.06836e-08 0)
(0.108734 1.13126e-08 0)
(0.108734 1.23036e-08 0)
(0.108734 1.2519e-08 0)
(0.108734 9.72678e-09 0)
(0.108734 4.95698e-09 0)
(0.108734 1.07602e-09 0)
(0.108734 -1.55039e-09 0)
(0.108734 -4.28737e-09 0)
(0.108734 -6.91672e-09 0)
(0.108734 -7.91793e-09 0)
(0.108734 -7.80473e-09 0)
(0.108734 -9.27735e-09 0)
(0.108734 -1.2673e-08 0)
(0.108734 -1.53098e-08 0)
(0.108734 -1.61663e-08 0)
(0.108734 -1.65464e-08 0)
(0.108734 -1.72572e-08 0)
(0.108734 -1.85774e-08 0)
(0.108734 -2.10817e-08 0)
(0.108734 -2.45452e-08 0)
(0.108734 -2.72754e-08 0)
(0.108734 -2.74675e-08 0)
(0.108734 -2.51858e-08 0)
(0.108734 -2.23296e-08 0)
(0.108734 -2.00692e-08 0)
(0.108734 -1.78674e-08 0)
(0.108734 -1.54017e-08 0)
(0.108734 -1.26222e-08 0)
(0.108734 -9.20435e-09 0)
(0.108734 -5.6275e-09 0)
(0.108734 -3.26418e-09 0)
(0.108734 -2.33684e-09 0)
(0.108734 -1.8239e-09 0)
(0.108734 -1.51813e-09 0)
(0.108734 -2.0905e-09 0)
(0.108734 -3.18007e-09 0)
(0.108734 -3.03807e-09 0)
(0.108734 -8.24709e-10 0)
(0.108734 1.87945e-09 0)
(0.108734 3.18689e-09 0)
(0.108734 3.23282e-09 0)
(0.108734 2.67912e-09 0)
(0.108734 1.04107e-09 0)
(0.108734 -1.3463e-09 0)
(0.108734 -2.37853e-09 0)
(0.108734 -1.32947e-09 0)
(0.108734 -6.62473e-10 0)
(0.108734 -2.64177e-09 0)
(0.108734 -6.11081e-09 0)
(0.108734 -8.7101e-09 0)
(0.108734 -1.04525e-08 0)
(0.108734 -1.2434e-08 0)
(0.108734 -1.41254e-08 0)
(0.108734 -1.46074e-08 0)
(0.108734 -1.43639e-08 0)
(0.108734 -1.38896e-08 0)
(0.108734 -1.29268e-08 0)
(0.108734 -1.18552e-08 0)
(0.108734 -1.15359e-08 0)
(0.108734 -1.15545e-08 0)
(0.108734 -1.06851e-08 0)
(0.108734 -9.04953e-09 0)
(0.108734 -8.02182e-09 0)
(0.108734 -8.44339e-09 0)
(0.108734 -1.0117e-08 0)
(0.108734 -1.26816e-08 0)
(0.108734 -1.53428e-08 0)
(0.108734 -1.63069e-08 0)
(0.108734 -1.51175e-08 0)
(0.108734 -1.43859e-08 0)
(0.108734 -1.62704e-08 0)
(0.108734 -1.95684e-08 0)
(0.108734 -2.24597e-08 0)
(0.108734 -2.51363e-08 0)
(0.108734 -2.85463e-08 0)
(0.108734 -3.16036e-08 0)
(0.108734 -3.17e-08 0)
(0.108734 -2.90983e-08 0)
(0.108734 -2.70042e-08 0)
(0.108734 -2.60712e-08 0)
(0.108734 -2.4105e-08 0)
(0.108734 -2.10314e-08 0)
(0.108734 -1.85535e-08 0)
(0.108734 -1.62776e-08 0)
(0.108734 -1.30663e-08 0)
(0.108734 -1.0309e-08 0)
(0.108734 -1.0237e-08 0)
(0.108734 -1.21586e-08 0)
(0.108734 -1.25344e-08 0)
(0.108734 -9.50135e-09 0)
(0.108734 -5.49378e-09 0)
(0.108734 -2.73285e-09 0)
(0.108734 -9.38427e-10 0)
(0.108734 -1.10184e-09 0)
(0.108734 -4.03742e-09 0)
(0.108734 -7.42337e-09 0)
(0.108734 -9.03966e-09 0)
(0.108734 -9.10801e-09 0)
(0.108734 -9.01703e-09 0)
(0.108734 -9.37075e-09 0)
(0.108734 -9.81783e-09 0)
(0.108734 -9.91958e-09 0)
(0.108734 -8.94415e-09 0)
(0.108734 -6.69769e-09 0)
(0.108734 -3.52015e-09 0)
(0.108734 -2.05739e-10 0)
(0.108734 1.12886e-09 0)
(0.108734 1.41782e-10 0)
(0.108734 -1.32048e-09 0)
(0.108734 -2.82975e-09 0)
(0.108734 -4.43827e-09 0)
(0.108734 -5.59648e-09 0)
(0.108734 -5.46361e-09 0)
(0.108734 -4.30544e-09 0)
(0.108734 -4.0927e-09 0)
(0.108734 -3.94241e-09 0)
(0.108734 -9.32497e-10 0)
(0.108734 3.33985e-09 0)
(0.108734 6.30023e-09 0)
(0.108734 8.91507e-09 0)
(0.108734 1.13661e-08 0)
(0.108734 1.21078e-08 0)
(0.108734 1.1232e-08 0)
(0.108734 1.07589e-08 0)
(0.108734 1.35224e-08 0)
(0.108734 1.84087e-08 0)
(0.108734 2.20613e-08 0)
(0.108734 2.72766e-08 0)
(0.108734 3.59337e-08 0)
(0.108734 4.50676e-08 0)
(0.108734 5.66536e-08 0)
(0.108734 7.21834e-08 0)
(0.108734 8.58625e-08 0)
(0.108734 9.26592e-08 0)
(0.108734 9.63675e-08 0)
(0.108734 9.25533e-08 0)
(0.131149 -3.13812e-08 0)
(0.131149 -3.70684e-08 0)
(0.131149 -3.49089e-08 0)
(0.131149 -3.27377e-08 0)
(0.131149 -2.6748e-08 0)
(0.131149 -1.92401e-08 0)
(0.131149 -1.4373e-08 0)
(0.131149 -8.92419e-09 0)
(0.131149 -8.01866e-09 0)
(0.131149 -5.25841e-09 0)
(0.131149 -1.88428e-09 0)
(0.131149 -6.99853e-10 0)
(0.131149 -3.10579e-09 0)
(0.131149 -7.00322e-09 0)
(0.131149 -6.39988e-09 0)
(0.131149 -5.83077e-09 0)
(0.131149 -6.772e-09 0)
(0.131149 -7.65055e-09 0)
(0.131149 -7.83775e-09 0)
(0.131149 -6.07833e-09 0)
(0.131149 -2.17173e-09 0)
(0.131149 -3.26873e-10 0)
(0.131149 1.88045e-09 0)
(0.131149 5.07388e-09 0)
(0.131149 5.24071e-09 0)
(0.131149 4.48673e-09 0)
(0.131149 4.98582e-09 0)
(0.131149 6.2888e-09 0)
(0.131149 8.21359e-09 0)
(0.131149 9.18247e-09 0)
(0.131149 8.68885e-09 0)
(0.131149 8.9257e-09 0)
(0.131149 9.39805e-09 0)
(0.131149 7.91403e-09 0)
(0.131149 5.9943e-09 0)
(0.131149 5.28222e-09 0)
(0.131149 5.09745e-09 0)
(0.131149 5.11849e-09 0)
(0.131149 5.11826e-09 0)
(0.131149 4.84114e-09 0)
(0.131149 4.1151e-09 0)
(0.131149 2.49614e-09 0)
(0.131149 3.9081e-10 0)
(0.131149 -1.52665e-09 0)
(0.131149 -2.71345e-09 0)
(0.131149 -1.91592e-09 0)
(0.131149 1.1602e-09 0)
(0.131149 4.19491e-09 0)
(0.131149 5.6405e-09 0)
(0.131149 7.53555e-09 0)
(0.131149 1.09191e-08 0)
(0.131149 1.30283e-08 0)
(0.131149 1.25038e-08 0)
(0.131149 1.17294e-08 0)
(0.131149 1.26661e-08 0)
(0.131149 1.41323e-08 0)
(0.131149 1.41859e-08 0)
(0.131149 1.36403e-08 0)
(0.131149 1.43459e-08 0)
(0.131149 1.53639e-08 0)
(0.131149 1.49194e-08 0)
(0.131149 1.41266e-08 0)
(0.131149 1.46558e-08 0)
(0.131149 1.50511e-08 0)
(0.131149 1.3433e-08 0)
(0.131149 1.13705e-08 0)
(0.131149 1.03663e-08 0)
(0.131149 8.13238e-09 0)
(0.131149 3.15741e-09 0)
(0.131149 -1.77095e-09 0)
(0.131149 -3.61381e-09 0)
(0.131149 -3.22603e-09 0)
(0.131149 -3.52374e-09 0)
(0.131149 -5.17101e-09 0)
(0.131149 -6.65169e-09 0)
(0.131149 -7.89409e-09 0)
(0.131149 -9.97867e-09 0)
(0.131149 -1.23975e-08 0)
(0.131149 -1.42218e-08 0)
(0.131149 -1.58034e-08 0)
(0.131149 -1.74691e-08 0)
(0.131149 -1.91109e-08 0)
(0.131149 -2.1061e-08 0)
(0.131149 -2.35879e-08 0)
(0.131149 -2.60621e-08 0)
(0.131149 -2.69881e-08 0)
(0.131149 -2.53578e-08 0)
(0.131149 -2.19451e-08 0)
(0.131149 -1.84228e-08 0)
(0.131149 -1.55874e-08 0)
(0.131149 -1.34212e-08 0)
(0.131149 -1.14855e-08 0)
(0.131149 -8.64569e-09 0)
(0.131149 -4.6872e-09 0)
(0.131149 -1.64123e-09 0)
(0.131149 -1.38165e-09 0)
(0.131149 -2.90403e-09 0)
(0.131149 -3.77581e-09 0)
(0.131149 -3.13956e-09 0)
(0.131149 -1.91864e-09 0)
(0.131149 -6.67338e-10 0)
(0.131149 1.20669e-09 0)
(0.131149 3.37009e-09 0)
(0.131149 4.13316e-09 0)
(0.131149 3.17616e-09 0)
(0.131149 2.14585e-09 0)
(0.131149 1.74211e-09 0)
(0.131149 9.79955e-10 0)
(0.131149 -1.2294e-10 0)
(0.131149 -1.39096e-10 0)
(0.131149 8.88751e-10 0)
(0.131149 7.19074e-10 0)
(0.131149 -1.77554e-09 0)
(0.131149 -4.87567e-09 0)
(0.131149 -6.97308e-09 0)
(0.131149 -8.62032e-09 0)
(0.131149 -1.03782e-08 0)
(0.131149 -1.16831e-08 0)
(0.131149 -1.23694e-08 0)
(0.131149 -1.28986e-08 0)
(0.131149 -1.28805e-08 0)
(0.131149 -1.18557e-08 0)
(0.131149 -1.06163e-08 0)
(0.131149 -1.01546e-08 0)
(0.131149 -1.0306e-08 0)
(0.131149 -1.05588e-08 0)
(0.131149 -1.10458e-08 0)
(0.131149 -1.18638e-08 0)
(0.131149 -1.26525e-08 0)
(0.131149 -1.36661e-08 0)
(0.131149 -1.58538e-08 0)
(0.131149 -1.85604e-08 0)
(0.131149 -1.95849e-08 0)
(0.131149 -1.92279e-08 0)
(0.131149 -2.04752e-08 0)
(0.131149 -2.40314e-08 0)
(0.131149 -2.6932e-08 0)
(0.131149 -2.69804e-08 0)
(0.131149 -2.61639e-08 0)
(0.131149 -2.76476e-08 0)
(0.131149 -3.04405e-08 0)
(0.131149 -3.11403e-08 0)
(0.131149 -2.96669e-08 0)
(0.131149 -2.80307e-08 0)
(0.131149 -2.59734e-08 0)
(0.131149 -2.25734e-08 0)
(0.131149 -1.91868e-08 0)
(0.131149 -1.71051e-08 0)
(0.131149 -1.53618e-08 0)
(0.131149 -1.30386e-08 0)
(0.131149 -1.08966e-08 0)
(0.131149 -9.7727e-09 0)
(0.131149 -8.60362e-09 0)
(0.131149 -5.52421e-09 0)
(0.131149 -2.00109e-09 0)
(0.131149 -1.12084e-09 0)
(0.131149 -2.29677e-09 0)
(0.131149 -3.82843e-09 0)
(0.131149 -5.73092e-09 0)
(0.131149 -7.45588e-09 0)
(0.131149 -8.27743e-09 0)
(0.131149 -8.56883e-09 0)
(0.131149 -8.94648e-09 0)
(0.131149 -9.30911e-09 0)
(0.131149 -9.25149e-09 0)
(0.131149 -8.96847e-09 0)
(0.131149 -8.03692e-09 0)
(0.131149 -5.91915e-09 0)
(0.131149 -3.26956e-09 0)
(0.131149 -6.93025e-10 0)
(0.131149 2.08744e-10 0)
(0.131149 -1.4614e-09 0)
(0.131149 -2.93974e-09 0)
(0.131149 -2.30831e-09 0)
(0.131149 -1.28994e-09 0)
(0.131149 -1.72786e-09 0)
(0.131149 -2.62141e-09 0)
(0.131149 -1.36543e-09 0)
(0.131149 1.47793e-09 0)
(0.131149 2.94627e-09 0)
(0.131149 3.75903e-09 0)
(0.131149 6.69425e-09 0)
(0.131149 1.08207e-08 0)
(0.131149 1.41449e-08 0)
(0.131149 1.65768e-08 0)
(0.131149 1.68872e-08 0)
(0.131149 1.58974e-08 0)
(0.131149 1.72674e-08 0)
(0.131149 2.14869e-08 0)
(0.131149 2.77325e-08 0)
(0.131149 3.50985e-08 0)
(0.131149 4.24521e-08 0)
(0.131149 5.29302e-08 0)
(0.131149 6.50832e-08 0)
(0.131149 7.4263e-08 0)
(0.131149 8.73371e-08 0)
(0.131149 1.03949e-07 0)
(0.131149 1.13206e-07 0)
(0.131149 1.142e-07 0)
(0.131149 1.09311e-07 0)
(0.149806 -1.58138e-08 0)
(0.149806 -1.90791e-08 0)
(0.149806 -1.94485e-08 0)
(0.149806 -1.49999e-08 0)
(0.149806 -1.10264e-08 0)
(0.149806 -5.53198e-09 0)
(0.149806 -1.98684e-09 0)
(0.149806 3.93553e-09 0)
(0.149806 9.3875e-09 0)
(0.149806 9.22761e-09 0)
(0.149806 7.46739e-09 0)
(0.149806 4.03327e-09 0)
(0.149806 2.64777e-09 0)
(0.149806 2.15234e-09 0)
(0.149806 1.76478e-09 0)
(0.149806 -6.1465e-10 0)
(0.149806 -4.45021e-09 0)
(0.149806 -4.83362e-09 0)
(0.149806 -4.82924e-09 0)
(0.149806 -4.94001e-09 0)
(0.149806 -1.90778e-09 0)
(0.149806 3.52031e-10 0)
(0.149806 1.87898e-09 0)
(0.149806 5.52053e-09 0)
(0.149806 7.19369e-09 0)
(0.149806 7.16528e-09 0)
(0.149806 8.20546e-09 0)
(0.149806 8.68393e-09 0)
(0.149806 8.95024e-09 0)
(0.149806 9.23971e-09 0)
(0.149806 8.2676e-09 0)
(0.149806 7.44518e-09 0)
(0.149806 7.01872e-09 0)
(0.149806 4.92754e-09 0)
(0.149806 2.70563e-09 0)
(0.149806 2.31902e-09 0)
(0.149806 2.21593e-09 0)
(0.149806 1.79858e-09 0)
(0.149806 1.91368e-09 0)
(0.149806 1.90358e-09 0)
(0.149806 5.49714e-10 0)
(0.149806 -2.17055e-09 0)
(0.149806 -4.47948e-09 0)
(0.149806 -4.79047e-09 0)
(0.149806 -4.29324e-09 0)
(0.149806 -4.32466e-09 0)
(0.149806 -3.10604e-09 0)
(0.149806 5.86032e-10 0)
(0.149806 4.19482e-09 0)
(0.149806 6.11788e-09 0)
(0.149806 7.86076e-09 0)
(0.149806 9.6474e-09 0)
(0.149806 1.05604e-08 0)
(0.149806 1.12298e-08 0)
(0.149806 1.31049e-08 0)
(0.149806 1.57372e-08 0)
(0.149806 1.63846e-08 0)
(0.149806 1.43055e-08 0)
(0.149806 1.29419e-08 0)
(0.149806 1.45917e-08 0)
(0.149806 1.695e-08 0)
(0.149806 1.75664e-08 0)
(0.149806 1.71336e-08 0)
(0.149806 1.63333e-08 0)
(0.149806 1.38835e-08 0)
(0.149806 1.01803e-08 0)
(0.149806 7.72992e-09 0)
(0.149806 6.53052e-09 0)
(0.149806 4.30777e-09 0)
(0.149806 1.16002e-09 0)
(0.149806 -4.66145e-10 0)
(0.149806 1.69745e-10 0)
(0.149806 5.70118e-10 0)
(0.149806 -1.26014e-09 0)
(0.149806 -3.78264e-09 0)
(0.149806 -5.06122e-09 0)
(0.149806 -5.78612e-09 0)
(0.149806 -7.24111e-09 0)
(0.149806 -9.64646e-09 0)
(0.149806 -1.2926e-08 0)
(0.149806 -1.65343e-08 0)
(0.149806 -1.94358e-08 0)
(0.149806 -2.12453e-08 0)
(0.149806 -2.23024e-08 0)
(0.149806 -2.29374e-08 0)
(0.149806 -2.29845e-08 0)
(0.149806 -2.20181e-08 0)
(0.149806 -2.0199e-08 0)
(0.149806 -1.82482e-08 0)
(0.149806 -1.62974e-08 0)
(0.149806 -1.40383e-08 0)
(0.149806 -1.17526e-08 0)
(0.149806 -9.46665e-09 0)
(0.149806 -6.74589e-09 0)
(0.149806 -4.2221e-09 0)
(0.149806 -3.41193e-09 0)
(0.149806 -4.21679e-09 0)
(0.149806 -4.37474e-09 0)
(0.149806 -2.11214e-09 0)
(0.149806 1.56849e-09 0)
(0.149806 4.2728e-09 0)
(0.149806 5.34728e-09 0)
(0.149806 5.88047e-09 0)
(0.149806 6.07947e-09 0)
(0.149806 5.39033e-09 0)
(0.149806 4.64516e-09 0)
(0.149806 5.08698e-09 0)
(0.149806 5.91513e-09 0)
(0.149806 5.43521e-09 0)
(0.149806 3.98592e-09 0)
(0.149806 3.30246e-09 0)
(0.149806 3.30973e-09 0)
(0.149806 2.25249e-09 0)
(0.149806 -1.24549e-10 0)
(0.149806 -2.35334e-09 0)
(0.149806 -3.9558e-09 0)
(0.149806 -5.74474e-09 0)