/*--------------------------------*- C++ -*----------------------------------*\
| =========                 |                                                 |
| \\      /  F ield         | OpenFOAM: The Open Source CFD Toolbox           |
|  \\    /   O peration     | Version:  2406                                  |
|   \\  /    A nd           | Website:  www.openfoam.com                      |
|    \\/     M anipulation  |                                                 |
\*---------------------------------------------------------------------------*/
FoamFile
{
    version     2.0;
    format      ascii;
    arch        "LSB;label=32;scalar=64";
    class       surfaceScalarField;
    location    "0.1";
    object      phi;
}
// * * * * * * * * * * * * * * * * * * * * * * * * * * * * * * * * * * * * * //

dimensions      [0 3 -1 0 0 0 0];

oriented        oriented;

internalField   nonuniform List<scalar> 
4335
(
2.18376e-05
-6.53054e-09
2.18428e-05
-5.1833e-09
2.18469e-05
-4.03372e-09
2.18503e-05
-3.51578e-09
2.18537e-05
-3.38152e-09
2.18572e-05
-3.41498e-09
2.18607e-05
-3.51123e-09
2.18643e-05
-3.57565e-09
2.18678e-05
-3.60585e-09
2.18713e-05
-3.50732e-09
2.18747e-05
-3.35046e-09
2.18778e-05
-3.11677e-09
2.18807e-05
-2.80783e-09
2.18831e-05
-2.48511e-09
2.18853e-05
-2.12761e-09
2.1887e-05
-1.75184e-09
2.18884e-05
-1.40558e-09
2.18896e-05
-1.09514e-09
2.18904e-05
-8.1539e-10
2.1891e-05
-5.85059e-10
2.18914e-05
-4.09169e-10
2.18917e-05
-2.68597e-10
2.18918e-05
-1.57798e-10
2.18919e-05
-8.62695e-11
2.18919e-05
-4.49561e-11
2.1892e-05
-1.35824e-11
2.1892e-05
6.17804e-12
2.1892e-05
9.87685e-13
2.1892e-05
-2.3959e-11
2.1892e-05
-4.74355e-11
2.18921e-05
-5.98944e-11
2.18921e-05
-7.18083e-11
2.18922e-05
-9.17936e-11
2.18923e-05
-1.11795e-10
2.18924e-05
-1.20444e-10
2.18926e-05
-1.19574e-10
2.18927e-05
-1.19583e-10
2.18928e-05
-1.2353e-10
2.18929e-05
-1.23314e-10
2.1893e-05
-1.10824e-10
2.18931e-05
-8.76277e-11
2.18932e-05
-6.18395e-11
2.18932e-05
-3.82197e-11
2.18933e-05
-1.45396e-11
2.18932e-05
1.1781e-11
2.18932e-05
4.00259e-11
2.18932e-05
6.65964e-11
2.18931e-05
8.98266e-11
2.1893e-05
1.10403e-10
2.18928e-05
1.28383e-10
2.18927e-05
1.41699e-10
2.18926e-05
1.47768e-10
2.18924e-05
1.45774e-10
2.18923e-05
1.36968e-10
2.18922e-05
1.23055e-10
2.18921e-05
1.04615e-10
2.1892e-05
8.11417e-11
2.18919e-05
5.2338e-11
2.18919e-05
1.89501e-11
2.18919e-05
-1.71192e-11
2.1892e-05
-5.46163e-11
2.1892e-05
-9.28661e-11
2.18922e-05
-1.31919e-10
2.18923e-05
-1.72064e-10
2.18925e-05
-2.13629e-10
2.18928e-05
-2.5724e-10
2.18931e-05
-3.04185e-10
2.18934e-05
-3.56038e-10
2.18939e-05
-4.13143e-10
2.18943e-05
-4.72989e-10
2.18949e-05
-5.30221e-10
2.18955e-05
-5.7878e-10
2.18961e-05
-6.1454e-10
2.18967e-05
-6.36168e-10
2.18974e-05
-6.4368e-10
2.1898e-05
-6.36417e-10
2.18986e-05
-6.12682e-10
2.18992e-05
-5.71526e-10
2.18997e-05
-5.14786e-10
2.19001e-05
-4.46929e-10
2.19005e-05
-3.72157e-10
2.19008e-05
-2.91208e-10
2.1901e-05
-2.01251e-10
2.19011e-05
-9.89861e-11
2.19011e-05
1.33606e-11
2.1901e-05
1.30972e-10
2.19007e-05
2.48624e-10
2.19003e-05
3.64255e-10
2.18999e-05
4.76897e-10
2.18993e-05
5.81603e-10
2.18986e-05
6.68935e-10
2.18979e-05
7.30705e-10
2.18971e-05
7.65282e-10
2.18963e-05
7.75899e-10
2.18956e-05
7.64716e-10
2.18948e-05
7.30931e-10
2.18942e-05
6.75129e-10
2.18936e-05
6.03144e-10
2.1893e-05
5.23717e-10
2.18926e-05
4.43235e-10
2.18922e-05
3.64293e-10
2.18919e-05
2.8836e-10
2.18917e-05
2.17454e-10
2.18916e-05
1.53188e-10
2.18915e-05
9.67529e-11
2.18914e-05
5.08444e-11
2.18914e-05
1.92962e-11
2.18914e-05
2.76788e-12
2.18914e-05
-3.9723e-12
2.18914e-05
-6.97708e-12
2.18914e-05
-6.93797e-12
2.18914e-05
8.53298e-13
2.18914e-05
1.89878e-11
2.18913e-05
4.30177e-11
2.18913e-05
6.5955e-11
2.18912e-05
8.52902e-11
2.18911e-05
1.02822e-10
2.1891e-05
1.18859e-10
2.18908e-05
1.30177e-10
2.18907e-05
1.33882e-10
2.18906e-05
1.3048e-10
2.18905e-05
1.22506e-10
2.18903e-05
1.11971e-10
2.18902e-05
9.93081e-11
2.18902e-05
8.34808e-11
2.18901e-05
6.38308e-11
2.18901e-05
4.20923e-11
2.18901e-05
2.11917e-11
2.18901e-05
1.82452e-12
2.18901e-05
-1.83391e-11
2.18901e-05
-3.88127e-11
2.18902e-05
-5.46999e-11
2.18902e-05
-6.21023e-11
2.18903e-05
-6.29378e-11
2.18903e-05
-6.05277e-11
2.18904e-05
-5.41745e-11
2.18904e-05
-4.41833e-11
2.18905e-05
-3.74015e-11
2.18905e-05
-4.00211e-11
2.18906e-05
-4.8283e-11
2.18906e-05
-5.58467e-11
2.18907e-05
-6.90097e-11
2.18908e-05
-1.01592e-10
2.18909e-05
-1.61814e-10
2.18912e-05
-2.55458e-10
2.18916e-05
-3.99563e-10
2.18922e-05
-6.18929e-10
2.18931e-05
-9.38241e-10
2.18946e-05
-1.42584e-09
-2.13416e-09
5.74917e-05
-1.48216e-08
5.74997e-05
-1.32253e-08
5.75078e-05
-1.20704e-08
5.75159e-05
-1.15619e-08
5.7524e-05
-1.15362e-08
5.75323e-05
-1.17144e-08
5.75407e-05
-1.19686e-08
5.75493e-05
-1.21184e-08
5.75577e-05
-1.20747e-08
5.7566e-05
-1.17961e-08
5.75739e-05
-1.12452e-08
5.75812e-05
-1.04519e-08
5.75878e-05
-9.4582e-09
5.75937e-05
-8.33343e-09
5.75987e-05
-7.1361e-09
5.76029e-05
-5.94219e-09
5.76062e-05
-4.79893e-09
5.76089e-05
-3.74824e-09
5.76109e-05
-2.83595e-09
5.76124e-05
-2.07895e-09
5.76135e-05
-1.46142e-09
5.76142e-05
-9.69435e-10
5.76146e-05
-6.02821e-10
5.76149e-05
-3.49396e-10
5.7615e-05
-1.80071e-10
5.76151e-05
-7.80882e-11
5.76152e-05
-4.35393e-11
5.76152e-05
-6.41273e-11
5.76153e-05
-1.09714e-10
5.76154e-05
-1.58361e-10
5.76156e-05
-2.08165e-10
5.76157e-05
-2.627e-10
5.7616e-05
-3.17938e-10
5.76162e-05
-3.65634e-10
5.76165e-05
-4.01916e-10
5.76169e-05
-4.2802e-10
5.76172e-05
-4.43293e-10
5.76175e-05
-4.4066e-10
5.76178e-05
-4.12282e-10
5.7618e-05
-3.59063e-10
5.76183e-05
-2.91166e-10
5.76185e-05
-2.18178e-10
5.76186e-05
-1.40843e-10
5.76186e-05
-5.30671e-11
5.76186e-05
4.56123e-11
5.76185e-05
1.49998e-10
5.76183e-05
2.48162e-10
5.76181e-05
3.32339e-10
5.76178e-05
4.0127e-10
5.76175e-05
4.56591e-10
5.76171e-05
4.97573e-10
5.76167e-05
5.19763e-10
5.76164e-05
5.18227e-10
5.7616e-05
4.91583e-10
5.76157e-05
4.42522e-10
5.76154e-05
3.74477e-10
5.76152e-05
2.8854e-10
5.76151e-05
1.84379e-10
5.7615e-05
6.39237e-11
5.76151e-05
-6.68114e-11
5.76152e-05
-2.00374e-10
5.76154e-05
-3.32144e-10
5.76157e-05
-4.62641e-10
5.76161e-05
-5.96316e-10
5.76166e-05
-7.38572e-10
5.76173e-05
-8.93333e-10
5.7618e-05
-1.06212e-09
5.76189e-05
-1.24411e-09
5.76199e-05
-1.43594e-09
5.76211e-05
-1.63088e-09
5.76224e-05
-1.81796e-09
5.76239e-05
-1.9826e-09
5.76254e-05
-2.10939e-09
5.76269e-05
-2.18596e-09
5.76285e-05
-2.20581e-09
5.763e-05
-2.16839e-09
5.76315e-05
-2.07676e-09
5.76328e-05
-1.93483e-09
5.76341e-05
-1.74647e-09
5.76351e-05
-1.51649e-09
5.7636e-05
-1.25146e-09
5.76367e-05
-9.57977e-10
5.76371e-05
-6.39496e-10
5.76373e-05
-2.9383e-10
5.76372e-05
7.75014e-11
5.76369e-05
4.73023e-10
5.76362e-05
8.78929e-10
5.76353e-05
1.27832e-09
5.76341e-05
1.65515e-09
5.76327e-05
1.99465e-09
5.76311e-05
2.27979e-09
5.76293e-05
2.4914e-09
5.76275e-05
2.61494e-09
5.76256e-05
2.64732e-09
5.76238e-05
2.59599e-09
5.76221e-05
2.47201e-09
5.76205e-05
2.28603e-09
5.7619e-05
2.05055e-09
5.76178e-05
1.78264e-09
5.76167e-05
1.50143e-09
5.76159e-05
1.2233e-09
5.76152e-05
9.60294e-10
5.76147e-05
7.21402e-10
5.76143e-05
5.12419e-10
5.76141e-05
3.34629e-10
5.7614e-05
1.87135e-10
5.76139e-05
7.21142e-11
5.76139e-05
-4.51519e-12
5.7614e-05
-3.99699e-11
5.7614e-05
-4.05518e-11
5.7614e-05
-1.76226e-11
5.7614e-05
2.13908e-11
5.76139e-05
7.5996e-11
5.76138e-05
1.45464e-10
5.76136e-05
2.22399e-10
5.76134e-05
2.95764e-10
5.76132e-05
3.583e-10
5.76129e-05
4.08096e-10
5.76126e-05
4.44108e-10
5.76122e-05
4.63592e-10
5.76119e-05
4.64051e-10
5.76116e-05
4.45411e-10
5.76113e-05
4.10058e-10
5.7611e-05
3.6149e-10
5.76108e-05
3.01907e-10
5.76107e-05
2.31469e-10
5.76106e-05
1.52322e-10
5.76105e-05
7.25073e-11
5.76105e-05
1.27311e-12
5.76105e-05
-5.9927e-11
5.76106e-05
-1.16416e-10
5.76107e-05
-1.6902e-10
5.76109e-05
-2.09231e-10
5.7611e-05
-2.31179e-10
5.76112e-05
-2.40776e-10
5.76114e-05
-2.43902e-10
5.76115e-05
-2.35306e-10
5.76117e-05
-2.13469e-10
5.76119e-05
-1.96793e-10
5.7612e-05
-2.07443e-10
5.76122e-05
-2.50046e-10
5.76125e-05
-3.25474e-10
5.76128e-05
-4.53955e-10
5.76134e-05
-6.69165e-10
5.76141e-05
-1.00398e-09
5.76152e-05
-1.49127e-09
5.76168e-05
-2.16114e-09
5.76188e-05
-3.01594e-09
5.76214e-05
-3.99251e-09
-5.01093e-09
8.59961e-05
-2.13474e-08
8.6003e-05
-2.01276e-08
8.60107e-05
-1.98162e-08
8.60191e-05
-1.99935e-08
8.6028e-05
-2.0391e-08
8.60372e-05
-2.09445e-08
8.60467e-05
-2.14258e-08
8.60562e-05
-2.17382e-08
8.60658e-05
-2.16316e-08
8.60751e-05
-2.10917e-08
8.60839e-05
-2.01316e-08
8.60922e-05
-1.87078e-08
8.60997e-05
-1.69361e-08
8.61063e-05
-1.49572e-08
8.6112e-05
-1.28536e-08
8.61168e-05
-1.07329e-08
8.61207e-05
-8.71194e-09
8.61238e-05
-6.8671e-09
8.61262e-05
-5.24126e-09
8.6128e-05
-3.85475e-09
8.61293e-05
-2.71887e-09
8.61302e-05
-1.8312e-09
8.61307e-05
-1.16804e-09
8.61311e-05
-6.96609e-10
8.61313e-05
-3.88919e-10
8.61315e-05
-2.20925e-10
8.61316e-05
-1.63215e-10
8.61317e-05
-1.79414e-10
8.61318e-05
-2.38654e-10
8.6132e-05
-3.25543e-10
8.61323e-05
-4.32263e-10
8.61325e-05
-5.46285e-10
8.61329e-05
-6.52134e-10
8.61332e-05
-7.40872e-10
8.61337e-05
-8.10888e-10
8.61341e-05
-8.59942e-10
8.61345e-05
-8.80418e-10
8.61349e-05
-8.63318e-10
8.61353e-05
-8.05604e-10
8.61357e-05
-7.12396e-10
8.6136e-05
-5.91885e-10
8.61362e-05
-4.49246e-10
8.61364e-05
-2.85797e-10
8.61364e-05
-1.02671e-10
8.61364e-05
9.47276e-11
8.61363e-05
2.96957e-10
8.6136e-05
4.90932e-10
8.61357e-05
6.64552e-10
8.61353e-05
8.09835e-10
8.61348e-05
9.23083e-10
8.61343e-05
1.00225e-09
8.61338e-05
1.04435e-09
8.61333e-05
1.04533e-09
8.61328e-05
1.00224e-09
8.61323e-05
9.15068e-10
8.61319e-05
7.8652e-10
8.61316e-05
6.20506e-10
8.61313e-05
4.21737e-10
8.61312e-05
1.96922e-10
8.61312e-05
-4.45492e-11
8.61312e-05
-2.92747e-10
8.61314e-05
-5.40908e-10
8.61317e-05
-7.88356e-10
8.61322e-05
-1.04063e-09
8.61327e-05
-1.30709e-09
8.61334e-05
-1.59711e-09
8.61343e-05
-1.916e-09
8.61353e-05
-2.26218e-09
8.61365e-05
-2.62655e-09
8.61379e-05
-2.99353e-09
8.61394e-05
-3.34292e-09
8.61411e-05
-3.65128e-09
8.61429e-05
-3.89389e-09
8.61448e-05
-4.0479e-09
8.61467e-05
-4.0968e-09
8.61485e-05
-4.03412e-09
8.61503e-05
-3.86391e-09
8.6152e-05
-3.59728e-09
8.61535e-05
-3.24703e-09
8.61548e-05
-2.82389e-09
8.61559e-05
-2.33604e-09
8.61567e-05
-1.79073e-09
8.61572e-05
-1.19473e-09
8.61575e-05
-5.52885e-10
8.61575e-05
1.30805e-10
8.61571e-05
8.51257e-10
8.61563e-05
1.59312e-09
8.61553e-05
2.32939e-09
8.61539e-05
3.02597e-09
8.61523e-05
3.64905e-09
8.61504e-05
4.16842e-09
8.61483e-05
4.55665e-09
8.61461e-05
4.79067e-09
8.61439e-05
4.85841e-09
8.61418e-05
4.76458e-09
8.61397e-05
4.52879e-09
8.61378e-05
4.178e-09
8.61361e-05
3.74089e-09
8.61347e-05
3.24718e-09
8.61334e-05
2.7275e-09
8.61325e-05
2.21015e-09
8.61317e-05
1.71789e-09
8.61312e-05
1.26817e-09
8.61308e-05
8.74464e-10
8.61306e-05
5.44966e-10
8.61305e-05
2.80864e-10
8.61305e-05
7.95583e-11
8.61305e-05
-5.90605e-11
8.61306e-05
-1.31669e-10
8.61307e-05
-1.38303e-10
8.61308e-05
-8.8461e-11
8.61308e-05
2.26281e-12
8.61307e-05
1.20791e-10
8.61306e-05
2.59261e-10
8.61304e-05
4.08997e-10
8.61302e-05
5.55843e-10
8.61298e-05
6.84492e-10
8.61295e-05
7.85872e-10
8.6129e-05
8.57796e-10
8.61286e-05
8.99637e-10
8.61282e-05
9.09079e-10
8.61277e-05
8.83674e-10
8.61273e-05
8.23757e-10
8.61269e-05
7.33561e-10
8.61266e-05
6.19252e-10
8.61264e-05
4.85651e-10
8.61262e-05
3.3679e-10
8.61261e-05
1.80611e-10
8.61261e-05
2.97015e-11
8.61261e-05
-1.05651e-10
8.61262e-05
-2.23006e-10
8.61264e-05
-3.22628e-10
8.61266e-05
-3.99255e-10
8.61268e-05
-4.471e-10
8.6127e-05
-4.71698e-10
8.61273e-05
-4.84626e-10
8.61275e-05
-4.87402e-10
8.61278e-05
-4.76842e-10
8.6128e-05
-4.66263e-10
8.61283e-05
-4.84322e-10
8.61286e-05
-5.5628e-10
8.6129e-05
-7.02705e-10
8.61295e-05
-9.52574e-10
8.61301e-05
-1.34806e-09
8.6131e-05
-1.93374e-09
8.61323e-05
-2.74607e-09
8.6134e-05
-3.81623e-09
8.61361e-05
-5.10425e-09
8.61385e-05
-6.41461e-09
-7.4871e-09
0.00010815
-2.43562e-08
0.000108153
-2.3471e-08
0.000108157
-2.40079e-08
0.000108162
-2.5004e-08
0.000108168
-2.59908e-08
0.000108174
-2.69157e-08
0.00010818
-2.76738e-08
0.000108186
-2.80806e-08
0.000108193
-2.80174e-08
0.000108199
-2.7344e-08
0.000108205
-2.60839e-08
0.000108211
-2.42742e-08
0.000108216
-2.20467e-08
0.00010822
-1.95075e-08
0.000108224
-1.67936e-08
0.000108227
-1.40678e-08
0.00010823
-1.14612e-08
0.000108232
-9.05724e-09
0.000108234
-6.92251e-09
0.000108235
-5.10756e-09
0.000108236
-3.62932e-09
0.000108237
-2.47248e-09
0.000108237
-1.60475e-09
0.000108238
-9.91722e-10
0.000108238
-5.98998e-10
0.000108238
-3.87116e-10
0.000108238
-3.12804e-10
0.000108238
-3.35564e-10
0.000108238
-4.23554e-10
0.000108239
-5.55237e-10
0.000108239
-7.13966e-10
0.000108239
-8.80725e-10
0.00010824
-1.03562e-09
0.00010824
-1.16552e-09
0.00010824
-1.26474e-09
0.000108241
-1.32786e-09
0.000108241
-1.34625e-09
0.000108242
-1.31303e-09
0.000108242
-1.22813e-09
0.000108243
-1.09629e-09
0.000108243
-9.21247e-10
0.000108243
-7.03954e-10
0.000108243
-4.46712e-10
0.000108243
-1.57709e-10
0.000108243
1.49145e-10
0.000108243
4.58023e-10
0.000108243
7.53957e-10
0.000108243
1.02372e-09
0.000108242
1.2558e-09
0.000108242
1.4406e-09
0.000108241
1.57101e-09
0.000108241
1.64265e-09
0.00010824
1.65308e-09
0.000108239
1.60069e-09
0.000108239
1.48445e-09
0.000108238
1.30548e-09
0.000108238
1.06895e-09
0.000108237
7.84802e-10
0.000108237
4.66499e-10
0.000108237
1.28379e-10
0.000108237
-2.17453e-10
0.000108237
-5.63909e-10
0.000108237
-9.10593e-10
0.000108237
-1.26391e-09
0.000108238
-1.63542e-09
0.000108238
-2.03825e-09
0.000108239
-2.48205e-09
0.000108239
-2.96777e-09
0.00010824
-3.48458e-09
0.000108241
-4.01027e-09
0.000108242
-4.51452e-09
0.000108244
-4.96305e-09
0.000108245
-5.3215e-09
0.000108247
-5.55898e-09
0.000108248
-5.65194e-09
0.00010825
-5.58808e-09
0.000108251
-5.36875e-09
0.000108253
-5.00783e-09
0.000108254
-4.52632e-09
0.000108255
-3.94493e-09
0.000108256
-3.27867e-09
0.000108257
-2.53626e-09
0.000108257
-1.7234e-09
0.000108257
-8.46248e-10
0.000108258
8.73643e-11
0.000108257
1.06697e-09
0.000108257
2.07507e-09
0.000108256
3.08149e-09
0.000108255
4.04247e-09
0.000108254
4.90755e-09
0.000108252
5.62937e-09
0.000108251
6.1695e-09
0.000108249
6.49958e-09
0.000108247
6.60324e-09
0.000108246
6.48109e-09
0.000108244
6.15387e-09
0.000108243
5.65859e-09
0.000108241
5.03999e-09
0.00010824
4.34384e-09
0.000108239
3.6139e-09
0.000108239
2.88936e-09
0.000108238
2.2014e-09
0.000108238
1.57228e-09
0.000108238
1.01858e-09
0.000108238
5.53889e-10
0.000108238
1.86753e-10
0.000108238
-8.20758e-11
0.000108238
-2.57335e-10
0.000108238
-3.43258e-10
0.000108238
-3.42033e-10
0.000108239
-2.59493e-10
0.000108239
-1.10107e-10
0.000108239
8.57168e-11
0.000108239
3.08804e-10
0.000108239
5.43367e-10
0.000108238
7.73286e-10
0.000108238
9.80889e-10
0.000108238
1.15168e-09
0.000108237
1.27806e-09
0.000108237
1.35683e-09
0.000108236
1.38522e-09
0.000108236
1.36074e-09
0.000108235
1.28328e-09
0.000108235
1.15664e-09
0.000108235
9.88988e-10
0.000108234
7.91017e-10
0.000108234
5.72536e-10
0.000108234
3.41798e-10
0.000108234
1.0877e-10
0.000108234
-1.12885e-10
0.000108234
-3.0981e-10
0.000108234
-4.74867e-10
0.000108234
-6.0584e-10
0.000108235
-6.99548e-10
0.000108235
-7.53745e-10
0.000108235
-7.74564e-10
0.000108235
-7.7515e-10
0.000108236
-7.6798e-10
0.000108236
-7.65913e-10
0.000108236
-7.90252e-10
0.000108237
-8.73842e-10
0.000108237
-1.05459e-09
0.000108237
-1.37041e-09
0.000108238
-1.86523e-09
0.000108239
-2.58113e-09
0.000108239
-3.55894e-09
0.00010824
-4.81213e-09
0.000108241
-6.26983e-09
0.000108243
-7.67365e-09
-8.65988e-09
0.000124639
-2.28725e-08
0.000124638
-2.22458e-08
0.000124637
-2.32239e-08
0.000124637
-2.4609e-08
0.000124637
-2.58939e-08
0.000124637
-2.69733e-08
0.000124637
-2.78326e-08
0.000124637
-2.82788e-08
0.000124637
-2.82285e-08
0.000124637
-2.75511e-08
0.000124638
-2.62908e-08
0.000124638
-2.4499e-08
0.000124638
-2.22499e-08
0.000124638
-1.96785e-08
0.000124638
-1.69566e-08
0.000124639
-1.42255e-08
0.000124639
-1.15877e-08
0.000124639
-9.14397e-09
0.000124639
-6.98556e-09
0.000124639
-5.15698e-09
0.000124639
-3.66221e-09
0.000124639
-2.49175e-09
0.000124639
-1.62435e-09
0.000124639
-1.02338e-09
0.000124639
-6.46092e-10
0.000124639
-4.52581e-10
0.000124639
-4.05239e-10
0.00012464
-4.66322e-10
0.00012464
-6.00594e-10
0.00012464
-7.79982e-10
0.00012464
-9.83149e-10
0.000124641
-1.19048e-09
0.000124641
-1.3822e-09
0.000124641
-1.54229e-09
0.000124642
-1.66111e-09
0.000124642
-1.73253e-09
0.000124643
-1.75031e-09
0.000124643
-1.70858e-09
0.000124643
-1.60448e-09
0.000124644
-1.43854e-09
0.000124644
-1.21243e-09
0.000124644
-9.27721e-10
0.000124644
-5.88603e-10
0.000124644
-2.06242e-10
0.000124644
2.00556e-10
0.000124644
6.09739e-10
0.000124644
1.00146e-09
0.000124644
1.36018e-09
0.000124643
1.67319e-09
0.000124643
1.92873e-09
0.000124642
2.11615e-09
0.000124642
2.22774e-09
0.000124641
2.25971e-09
0.00012464
2.21102e-09
0.00012464
2.08206e-09
0.000124639
1.87534e-09
0.000124639
1.59808e-09
0.000124638
1.26377e-09
0.000124638
8.9053e-10
0.000124637
4.97004e-10
0.000124637
9.81631e-11
0.000124637
-2.98023e-10
0.000124637
-6.91992e-10
0.000124636
-1.0922e-09
0.000124636
-1.51287e-09
0.000124636
-1.97009e-09
0.000124636
-2.47681e-09
0.000124636
-3.03747e-09
0.000124636
-3.64365e-09
0.000124637
-4.27228e-09
0.000124637
-4.88748e-09
0.000124637
-5.44552e-09
0.000124638
-5.90165e-09
0.000124639
-6.2168e-09
0.000124639
-6.36276e-09
0.00012464
-6.3252e-09
0.000124641
-6.10466e-09
0.000124642
-5.71548e-09
0.000124642
-5.18203e-09
0.000124643
-4.53218e-09
0.000124643
-3.78958e-09
0.000124644
-2.96849e-09
0.000124644
-2.07446e-09
0.000124644
-1.1099e-09
0.000124645
-8.01859e-11
0.000124645
1.00313e-09
0.000124645
2.12077e-09
0.000124644
3.24268e-09
0.000124644
4.32477e-09
0.000124644
5.31071e-09
0.000124643
6.14112e-09
0.000124643
6.7651e-09
0.000124642
7.14718e-09
0.000124641
7.26897e-09
0.000124641
7.13017e-09
0.00012464
6.75073e-09
0.00012464
6.17026e-09
0.000124639
5.44145e-09
0.000124639
4.62082e-09
0.000124639
3.76216e-09
0.000124639
2.91326e-09
0.000124639
2.11267e-09
0.000124639
1.38701e-09
0.000124639
7.52604e-10
0.00012464
2.2125e-10
0.00012464
-1.96384e-10
0.00012464
-4.93139e-10
0.000124641
-6.69943e-10
0.000124641
-7.34559e-10
0.000124642
-6.96182e-10
0.000124642
-5.63396e-10
0.000124642
-3.48526e-10
0.000124642
-7.19695e-11
0.000124642
2.40441e-10
0.000124642
5.64199e-10
0.000124642
8.79338e-10
0.000124642
1.16871e-09
0.000124642
1.41668e-09
0.000124641
1.61034e-09
0.000124641
1.74041e-09
0.000124641
1.80122e-09
0.00012464
1.79092e-09
0.00012464
1.71085e-09
0.000124639
1.56445e-09
0.000124639
1.35866e-09
0.000124639
1.1063e-09
0.000124638
8.236e-10
0.000124638
5.24351e-10
0.000124638
2.19298e-10
0.000124638
-7.77879e-11
0.000124638
-3.48362e-10
0.000124638
-5.78964e-10
0.000124638
-7.6804e-10
0.000124639
-9.15199e-10
0.000124639
-1.01139e-09
0.000124639
-1.05245e-09
0.000124639
-1.05466e-09
0.00012464
-1.0433e-09
0.00012464
-1.03499e-09
0.00012464
-1.04461e-09
0.00012464
-1.10151e-09
0.000124641
-1.24724e-09
0.000124641
-1.52447e-09
0.000124641
-1.96979e-09
0.000124641
-2.62102e-09
0.000124641
-3.51937e-09
0.000124641
-4.65128e-09
0.00012464
-5.93941e-09
0.00012464
-7.14698e-09
-7.9052e-09
0.000136017
-1.70912e-08
0.000136011
-1.66571e-08
0.000136005
-1.75048e-08
0.000135999
-1.87029e-08
0.000135993
-1.97102e-08
0.000135987
-2.05716e-08
0.00013598
-2.11877e-08
0.000135973
-2.14899e-08
0.000135967
-2.13868e-08
0.00013596
-2.08358e-08
0.000135953
-1.98297e-08
0.000135947
-1.84363e-08
0.000135942
-1.67022e-08
0.000135937
-1.47338e-08
0.000135933
-1.26634e-08
0.000135929
-1.05765e-08
0.000135926
-8.55892e-09
0.000135923
-6.70641e-09
0.000135921
-5.0842e-09
0.00013592
-3.71375e-09
0.000135919
-2.60006e-09
0.000135918
-1.74575e-09
0.000135918
-1.13588e-09
0.000135917
-7.36309e-10
0.000135917
-5.12401e-10
0.000135917
-4.36027e-10
0.000135917
-4.77877e-10
0.000135917
-6.05759e-10
0.000135918
-7.90527e-10
0.000135918
-1.00861e-09
0.000135918
-1.23987e-09
0.000135918
-1.46555e-09
0.000135919
-1.6682e-09
0.000135919
-1.83389e-09
0.000135919
-1.95436e-09
0.000135919
-2.02509e-09
0.00013592
-2.04052e-09
0.00013592
-1.99237e-09
0.00013592
-1.87287e-09
0.00013592
-1.67866e-09
0.000135921
-1.41117e-09
0.000135921
-1.07462e-09
0.000135921
-6.75833e-10
0.000135921
-2.27218e-10
0.000135921
2.51423e-10
0.000135921
7.35648e-10
0.000135921
1.20195e-09
0.00013592
1.63139e-09
0.00013592
2.00941e-09
0.00013592
2.3236e-09
0.000135919
2.56243e-09
0.000135919
2.71607e-09
0.000135918
2.7781e-09
0.000135918
2.7465e-09
0.000135917
2.62354e-09
0.000135916
2.41554e-09
0.000135916
2.13351e-09
0.000135915
1.79368e-09
0.000135915
1.41617e-09
0.000135914
1.02183e-09
0.000135914
6.27873e-10
0.000135913
2.43977e-10
0.000135913
-1.30339e-10
0.000135912
-5.05756e-10
0.000135912
-9.00357e-10
0.000135911
-1.33454e-09
0.00013591
-1.82524e-09
0.00013591
-2.38063e-09
0.000135909
-2.99583e-09
0.000135908
-3.65039e-09
0.000135908
-4.3084e-09
0.000135907
-4.92242e-09
0.000135907
-5.44091e-09
0.000135906
-5.81753e-09
0.000135906
-6.01928e-09
0.000135906
-6.03092e-09
0.000135905
-5.85494e-09
0.000135905
-5.50827e-09
0.000135905
-5.01734e-09
0.000135905
-4.41259e-09
0.000135905
-3.72216e-09
0.000135905
-2.96556e-09
0.000135905
-2.15051e-09
0.000135905
-1.2757e-09
0.000135905
-3.38799e-10
0.000135906
6.55561e-10
0.000135906
1.69174e-09
0.000135907
2.74237e-09
0.000135907
3.76757e-09
0.000135908
4.71481e-09
0.000135908
5.5236e-09
0.000135909
6.13627e-09
0.00013591
6.50962e-09
0.00013591
6.62133e-09
0.000135911
6.47065e-09
0.000135912
6.07731e-09
0.000135912
5.4801e-09
0.000135913
4.73231e-09
0.000135914
3.89317e-09
0.000135915
3.01924e-09
0.000135915
2.15996e-09
0.000135916
1.35598e-09
0.000135917
6.37048e-10
0.000135918
2.07048e-11
0.000135918
-4.84364e-10
0.000135919
-8.71902e-10
0.00013592
-1.13498e-09
0.00013592
-1.26977e-09
0.000135921
-1.28044e-09
0.000135921
-1.1785e-09
0.000135922
-9.77635e-10
0.000135922
-6.91891e-10
0.000135922
-3.39457e-10
0.000135922
5.4487e-11
0.000135922
4.61828e-10
0.000135923
8.58386e-10
0.000135922
1.22569e-09
0.000135922
1.54762e-09
0.000135922
1.80832e-09
0.000135922
1.99375e-09
0.000135922
2.09477e-09
0.000135921
2.10894e-09
0.000135921
2.0393e-09
0.000135921
1.89076e-09
0.00013592
1.66908e-09
0.00013592
1.38471e-09
0.00013592
1.05514e-09
0.00013592
7.00412e-10
0.00013592
3.37327e-10
0.000135919
-1.90739e-11
0.000135919
-3.50206e-10
0.00013592
-6.38258e-10
0.00013592
-8.75882e-10
0.00013592
-1.06209e-09
0.00013592
-1.19008e-09
0.00013592
-1.25413e-09
0.00013592
-1.26581e-09
0.000135921
-1.24666e-09
0.000135921
-1.21196e-09
0.000135921
-1.17605e-09
0.000135921
-1.16405e-09
0.000135921
-1.21072e-09
0.000135921
-1.34476e-09
0.00013592
-1.58761e-09
0.00013592
-1.97835e-09
0.000135919
-2.52737e-09
0.000135917
-3.23126e-09
0.000135915
-4.03536e-09
0.000135913
-4.78174e-09
-5.2079e-09
0.000142683
-8.17671e-09
0.000142674
-7.98524e-09
0.000142665
-8.26497e-09
0.000142655
-8.68128e-09
0.000142644
-8.95859e-09
0.000142632
-9.18496e-09
0.000142621
-9.27148e-09
0.000142608
-9.2492e-09
0.000142596
-9.04946e-09
0.000142584
-8.69079e-09
0.000142572
-8.14454e-09
0.000142561
-7.43279e-09
0.000142551
-6.60112e-09
0.000142542
-5.69834e-09
0.000142534
-4.76982e-09
0.000142527
-3.84646e-09
0.000142522
-2.97317e-09
0.000142517
-2.19339e-09
0.000142514
-1.52825e-09
0.000142511
-9.85684e-10
0.000142509
-5.73508e-10
0.000142508
-2.95417e-10
0.000142507
-1.4193e-10
0.000142506
-9.5632e-11
0.000142506
-1.41348e-10
0.000142506
-2.64429e-10
0.000142505
-4.45363e-10
0.000142506
-6.64066e-10
0.000142506
-9.05199e-10
0.000142506
-1.15628e-09
0.000142506
-1.40323e-09
0.000142506
-1.63078e-09
0.000142506
-1.82644e-09
0.000142506
-1.98284e-09
0.000142507
-2.09628e-09
0.000142507
-2.1623e-09
0.000142507
-2.17263e-09
0.000142507
-2.11661e-09
0.000142507
-1.98549e-09
0.000142507
-1.77504e-09
0.000142507
-1.48561e-09
0.000142507
-1.12163e-09
0.000142507
-6.92119e-10
0.000142507
-2.11454e-10
0.000142507
3.00624e-10
0.000142507
8.2122e-10
0.000142507
1.32733e-09
0.000142507
1.79832e-09
0.000142507
2.21701e-09
0.000142506
2.56937e-09
0.000142506
2.84372e-09
0.000142506
3.03021e-09
0.000142505
3.12171e-09
0.000142505
3.11571e-09
0.000142505
3.01571e-09
0.000142504
2.83136e-09
0.000142504
2.57743e-09
0.000142503
2.27258e-09
0.000142503
1.93785e-09
0.000142502
1.59432e-09
0.000142502
1.25974e-09
0.000142501
9.44592e-10
0.0001425
6.48895e-10
0.000142499
3.61106e-10
0.000142498
6.01969e-11
0.000142497
-2.79032e-10
0.000142496
-6.79183e-10
0.000142495
-1.15373e-09
0.000142494
-1.70217e-09
0.000142492
-2.3075e-09
0.000142491
-2.93642e-09
0.000142489
-3.54284e-09
0.000142488
-4.07463e-09
0.000142487
-4.48295e-09
0.000142486
-4.73164e-09
0.000142484
-4.80388e-09
0.000142483
-4.70362e-09
0.000142482
-4.45154e-09
0.000142481
-4.07772e-09
0.00014248
-3.61425e-09
0.00014248
-3.08947e-09
0.000142479
-2.5235e-09
0.000142479
-1.92475e-09
0.000142479
-1.28963e-09
0.000142479
-6.07865e-10
0.00014248
1.27965e-10
0.000142481
9.13329e-10
0.000142482
1.72881e-09
0.000142483
2.54104e-09
0.000142484
3.30512e-09
0.000142486
3.96761e-09
0.000142488
4.47339e-09
0.000142489
4.77637e-09
0.000142491
4.84957e-09
0.000142493
4.68923e-09
0.000142495
4.31328e-09
0.000142496
3.75764e-09
0.000142498
3.07168e-09
0.0001425
2.31116e-09
0.000142501
1.52945e-09
0.000142502
7.71289e-10
0.000142504
7.17414e-11
0.000142505
-5.42581e-10
0.000142506
-1.0538e-09
0.000142507
-1.45319e-09
0.000142508
-1.7382e-09
0.000142509
-1.90723e-09
0.000142509
-1.95783e-09
0.00014251
-1.89045e-09
0.00014251
-1.71281e-09
0.000142511
-1.43916e-09
0.000142511
-1.08609e-09
0.000142512
-6.7111e-10
0.000142512
-2.15316e-10
0.000142512
2.56088e-10
0.000142512
7.17897e-10
0.000142512
1.14876e-09
0.000142512
1.53045e-09
0.000142512
1.84582e-09
0.000142512
2.07963e-09
0.000142512
2.22107e-09
0.000142512
2.26571e-09
0.000142512
2.21588e-09
0.000142512
2.07814e-09
0.000142511
1.85986e-09
0.000142511
1.56991e-09
0.000142511
1.22306e-09
0.000142511
8.40554e-10
0.000142511
4.44606e-10
0.000142511
5.3593e-11
0.000142511
-3.15618e-10
0.000142511
-6.4461e-10
0.000142511
-9.18217e-10
0.000142511
-1.12982e-09
0.000142511
-1.27781e-09
0.000142511
-1.36203e-09
0.000142511
-1.38551e-09
0.000142511
-1.35456e-09
0.000142511
-1.28094e-09
0.000142511
-1.1814e-09
0.000142511
-1.07077e-09
0.000142511
-9.65621e-10
0.00014251
-8.72888e-10
0.00014251
-8.07304e-10
0.000142508
-7.90497e-10
0.000142507
-8.19817e-10
0.000142504
-8.94538e-10
0.000142501
-9.94536e-10
0.000142498
-1.07573e-09
-1.07109e-09
0.000144879
1.91335e-09
0.000144869
1.92444e-09
0.000144859
2.35976e-09
0.000144847
2.96744e-09
0.000144834
3.56806e-09
0.000144821
4.14783e-09
0.000144807
4.66258e-09
0.000144793
5.11078e-09
0.000144778
5.43661e-09
0.000144764
5.60223e-09
0.00014475
5.61864e-09
0.000144737
5.49748e-09
0.000144725
5.25407e-09
0.000144715
4.90662e-09
0.000144706
4.49053e-09
0.000144698
4.03747e-09
0.000144691
3.56258e-09
0.000144686
3.08416e-09
0.000144682
2.62157e-09
0.000144678
2.1807e-09
0.000144676
1.75968e-09
0.000144674
1.35838e-09
0.000144673
9.7759e-10
0.000144673
6.15269e-10
0.000144672
2.67683e-10
0.000144672
-6.72071e-11
0.000144672
-3.85843e-10
0.000144672
-6.85181e-10
0.000144672
-9.65341e-10
0.000144672
-1.22715e-09
0.000144672
-1.4664e-09
0.000144672
-1.67473e-09
0.000144672
-1.84641e-09
0.000144672
-1.98101e-09
0.000144672
-2.07807e-09
0.000144672
-2.13132e-09
0.000144672
-2.12959e-09
0.000144672
-2.06266e-09
0.000144672
-1.92459e-09
0.000144672
-1.71245e-09
0.000144672
-1.42483e-09
0.000144672
-1.06391e-09
0.000144672
-6.38243e-10
0.000144672
-1.62949e-10
0.000144672
3.42749e-10
0.000144671
8.58296e-10
0.000144671
1.36328e-09
0.000144671
1.83813e-09
0.000144671
2.26492e-09
0.000144671
2.62819e-09
0.000144671
2.91549e-09
0.000144671
3.11745e-09
0.000144671
3.22823e-09
0.000144671
3.24681e-09
0.000144671
3.17832e-09
0.00014467
3.03425e-09
0.00014467
2.8311e-09
0.00014467
2.5886e-09
0.00014467
2.32797e-09
0.000144669
2.06979e-09
0.000144669
1.83104e-09
0.000144668
1.62164e-09
0.000144667
1.44137e-09
0.000144666
1.27848e-09
0.000144665
1.11075e-09
0.000144664
9.09814e-10
0.000144663
6.47822e-10
0.000144661
3.05132e-10
0.00014466
-1.23376e-10
0.000144658
-6.24959e-10
0.000144656
-1.16968e-09
0.000144654
-1.71472e-09
0.000144652
-2.21158e-09
0.000144651
-2.6145e-09
0.000144649
-2.88898e-09
0.000144647
-3.01823e-09
0.000144645
-3.0061e-09
0.000144644
-2.87456e-09
0.000144642
-2.65645e-09
0.000144641
-2.38597e-09
0.00014464
-2.09096e-09
0.000144639
-1.78858e-09
0.000144639
-1.48386e-09
0.000144639
-1.1697e-09
0.000144639
-8.29814e-10
0.000144639
-4.46111e-10
0.00014464
-8.94494e-12
0.000144642
4.75412e-10
0.000144643
9.83726e-10
0.000144645
1.47978e-09
0.000144647
1.9194e-09
0.000144649
2.25567e-09
0.000144652
2.44639e-09
0.000144654
2.46337e-09
0.000144656
2.29915e-09
0.000144659
1.96737e-09
0.000144661
1.49832e-09
0.000144663
9.3358e-10
0.000144665
3.20499e-10
0.000144667
-2.948e-10
0.000144669
-8.74607e-10
0.00014467
-1.3926e-09
0.000144671
-1.83122e-09
0.000144673
-2.17796e-09
0.000144673
-2.42473e-09
0.000144674
-2.569e-09
0.000144675
-2.61244e-09
0.000144676
-2.55716e-09
0.000144676
-2.40434e-09
0.000144677
-2.15745e-09
0.000144677
-1.826e-09
0.000144677
-1.42489e-09
0.000144678
-9.71078e-10
0.000144678
-4.82491e-10
0.000144678
2.05587e-11
0.000144678
5.15435e-10
0.000144678
9.7986e-10
0.000144679
1.39366e-09
0.000144679
1.73912e-09
0.000144679
2.00202e-09
0.000144679
2.17269e-09
0.000144679
2.2459e-09
0.000144679
2.22104e-09
0.000144679
2.10293e-09
0.000144679
1.90055e-09
0.000144679
1.62457e-09
0.000144679
1.28768e-09
0.000144679
9.07886e-10
0.000144679
5.08877e-10
0.000144679
1.13208e-10
0.000144678
-2.63468e-10
0.000144678
-6.06859e-10
0.000144678
-8.97936e-10
0.000144678
-1.12172e-09
0.000144678
-1.27759e-09
0.000144678
-1.37083e-09
0.000144678
-1.39831e-09
0.000144678
-1.35351e-09
0.000144678
-1.24205e-09
0.000144678
-1.07525e-09
0.000144678
-8.57808e-10
0.000144678
-5.86412e-10
0.000144677
-2.50702e-10
0.000144676
1.3933e-10
0.000144675
6.01694e-10