/*--------------------------------*- C++ -*----------------------------------*\
| =========                 |                                                 |
| \\      /  F ield         | OpenFOAM: The Open Source CFD Toolbox           |
|  \\    /   O peration     | Version:  2406                                  |
|   \\  /    A nd           | Website:  www.openfoam.com                      |
|    \\/     M anipulation  |                                                 |
\*---------------------------------------------------------------------------*/
FoamFile
{
    version     2.0;
    format      ascii;
    arch        "LSB;label=32;scalar=64";
    class       volVectorField;
    location    "0.1";
    object      U;
}
// * * * * * * * * * * * * * * * * * * * * * * * * * * * * * * * * * * * * * //

dimensions      [0 1 -1 0 0 0 0];

internalField   nonuniform List<vector> 
2250
(
(0.327508 -4.54149e-05 0)
(0.327597 -3.3058e-05 0)
(0.327674 -2.25595e-05 0)
(0.327731 -1.74368e-05 0)
(0.327781 -1.59669e-05 0)
(0.327832 -1.60409e-05 0)
(0.327884 -1.66846e-05 0)
(0.327937 -1.71819e-05 0)
(0.327991 -1.75826e-05 0)
(0.328044 -1.71531e-05 0)
(0.328096 -1.6465e-05 0)
(0.328145 -1.5353e-05 0)
(0.32819 -1.38047e-05 0)
(0.32823 -1.22315e-05 0)
(0.328264 -1.04504e-05 0)
(0.328293 -8.53481e-06 0)
(0.328317 -6.78913e-06 0)
(0.328336 -5.23669e-06 0)
(0.328351 -3.83089e-06 0)
(0.328361 -2.69506e-06 0)
(0.328369 -1.85224e-06 0)
(0.328374 -1.16923e-06 0)
(0.328377 -6.2155e-07 0)
(0.328378 -2.88478e-07 0)
(0.328379 -1.12452e-07 0)
(0.328379 3.74155e-08 0)
(0.32838 1.45154e-07 0)
(0.32838 1.02983e-07 0)
(0.32838 -6.29955e-08 0)
(0.32838 -2.01522e-07 0)
(0.328381 -2.52578e-07 0)
(0.328381 -3.0254e-07 0)
(0.328383 -4.16051e-07 0)
(0.328384 -5.33559e-07 0)
(0.328386 -5.72947e-07 0)
(0.328387 -5.50994e-07 0)
(0.328389 -5.46599e-07 0)
(0.328391 -5.83632e-07 0)
(0.328393 -6.03416e-07 0)
(0.328394 -5.46455e-07 0)
(0.328396 -4.23521e-07 0)
(0.328397 -2.9193e-07 0)
(0.328398 -1.83175e-07 0)
(0.328399 -7.97945e-08 0)
(0.328399 4.27082e-08 0)
(0.328398 1.78403e-07 0)
(0.328398 3.0362e-07 0)
(0.328397 4.1089e-07 0)
(0.328395 5.09767e-07 0)
(0.328393 6.02829e-07 0)
(0.328391 6.75373e-07 0)
(0.328389 7.09297e-07 0)
(0.328387 6.99931e-07 0)
(0.328385 6.56839e-07 0)
(0.328383 5.91556e-07 0)
(0.328381 5.07277e-07 0)
(0.32838 3.9978e-07 0)
(0.328379 2.66082e-07 0)
(0.328379 1.09981e-07 0)
(0.328379 -6.09601e-08 0)
(0.328379 -2.37996e-07 0)
(0.32838 -4.16919e-07 0)
(0.328381 -5.97851e-07 0)
(0.328383 -7.83001e-07 0)
(0.328386 -9.75096e-07 0)
(0.328389 -1.17811e-06 0)
(0.328394 -1.3993e-06 0)
(0.328399 -1.6479e-06 0)
(0.328405 -1.92726e-06 0)
(0.328411 -2.22558e-06 0)
(0.328419 -2.51505e-06 0)
(0.328427 -2.76317e-06 0)
(0.328437 -2.94754e-06 0)
(0.328446 -3.06168e-06 0)
(0.328456 -3.10771e-06 0)
(0.328466 -3.08431e-06 0)
(0.328475 -2.98274e-06 0)
(0.328484 -2.79585e-06 0)
(0.328492 -2.53141e-06 0)
(0.328499 -2.21396e-06 0)
(0.328505 -1.86847e-06 0)
(0.32851 -1.49879e-06 0)
(0.328514 -1.08404e-06 0)
(0.328516 -6.02761e-07 0)
(0.328517 -5.87377e-08 0)
(0.328516 5.18598e-07 0)
(0.328513 1.09691e-06 0)
(0.328508 1.66808e-06 0)
(0.328502 2.23325e-06 0)
(0.328494 2.76814e-06 0)
(0.328484 3.21847e-06 0)
(0.328474 3.53737e-06 0)
(0.328463 3.71923e-06 0)
(0.328451 3.78626e-06 0)
(0.328439 3.74828e-06 0)
(0.328428 3.59271e-06 0)
(0.328417 3.31753e-06 0)
(0.328408 2.95773e-06 0)
(0.328399 2.56616e-06 0)
(0.328392 2.17529e-06 0)
(0.328386 1.79013e-06 0)
(0.328381 1.41285e-06 0)
(0.328377 1.0566e-06 0)
(0.328375 7.33559e-07 0)
(0.328373 4.48382e-07 0)
(0.328372 2.13416e-07 0)
(0.328371 5.40352e-08 0)
(0.328371 -1.95854e-08 0)
(0.328371 -3.78706e-08 0)
(0.328371 -4.82978e-08 0)
(0.328371 -5.96714e-08 0)
(0.328371 -3.5107e-08 0)
(0.328371 5.4444e-08 0)
(0.32837 1.8683e-07 0)
(0.32837 3.12401e-07 0)
(0.328368 4.08864e-07 0)
(0.328367 4.9067e-07 0)
(0.328365 5.68358e-07 0)
(0.328364 6.24681e-07 0)
(0.328362 6.39157e-07 0)
(0.32836 6.16247e-07 0)
(0.328358 5.7676e-07 0)
(0.328356 5.32219e-07 0)
(0.328354 4.75782e-07 0)
(0.328353 3.94328e-07 0)
(0.328352 2.88419e-07 0)
(0.328351 1.79671e-07 0)
(0.328351 8.83064e-08 0)
(0.328351 6.32318e-09 0)
(0.328351 -8.66401e-08 0)
(0.328351 -1.88028e-07 0)
(0.328352 -2.64096e-07 0)
(0.328353 -2.91077e-07 0)
(0.328354 -2.83822e-07 0)
(0.328355 -2.60445e-07 0)
(0.328355 -2.09637e-07 0)
(0.328356 -1.3244e-07 0)
(0.328357 -7.84916e-08 0)
(0.328358 -8.26874e-08 0)
(0.328359 -1.0518e-07 0)
(0.328359 -9.98501e-08 0)
(0.32836 -1.01869e-07 0)
(0.328361 -1.95561e-07 0)
(0.328363 -4.29727e-07 0)
(0.328365 -8.52089e-07 0)
(0.32837 -1.60402e-06 0)
(0.328377 -2.9151e-06 0)
(0.328389 -5.10786e-06 0)
(0.328408 -8.89037e-06 0)
(0.328438 -1.4534e-05 0)
(0.862301 -0.000159177 0)
(0.86242 -0.000134575 0)
(0.862555 -0.0001139 0)
(0.862679 -0.000103457 0)
(0.862798 -0.000100751 0)
(0.862921 -0.000101587 0)
(0.863047 -0.000103856 0)
(0.863175 -0.000105305 0)
(0.863303 -0.000105262 0)
(0.86343 -0.000102718 0)
(0.863551 -9.78967e-05 0)
(0.863666 -9.09145e-05 0)
(0.863771 -8.2048e-05 0)
(0.863864 -7.22417e-05 0)
(0.863946 -6.1706e-05 0)
(0.864015 -5.10821e-05 0)
(0.864071 -4.10352e-05 0)
(0.864116 -3.18777e-05 0)
(0.864151 -2.38895e-05 0)
(0.864177 -1.73229e-05 0)
(0.864196 -1.20766e-05 0)
(0.864208 -7.89318e-06 0)
(0.864217 -4.74214e-06 0)
(0.864222 -2.62212e-06 0)
(0.864225 -1.25596e-06 0)
(0.864226 -3.85659e-07 0)
(0.864227 -4.133e-08 0)
(0.864228 -2.54637e-07 0)
(0.864229 -7.75231e-07 0)
(0.86423 -1.27562e-06 0)
(0.864232 -1.67724e-06 0)
(0.864235 -2.10474e-06 0)
(0.864238 -2.60618e-06 0)
(0.864241 -3.06122e-06 0)
(0.864246 -3.35281e-06 0)
(0.864251 -3.50813e-06 0)
(0.864255 -3.6092e-06 0)
(0.86426 -3.63069e-06 0)
(0.864264 -3.45066e-06 0)
(0.864269 -3.01098e-06 0)
(0.864273 -2.4e-06 0)
(0.864276 -1.7534e-06 0)
(0.864278 -1.11182e-06 0)
(0.864279 -4.13006e-07 0)
(0.864279 3.93357e-07 0)
(0.864278 1.25081e-06 0)
(0.864276 2.05177e-06 0)
(0.864273 2.73165e-06 0)
(0.864269 3.29404e-06 0)
(0.864264 3.75754e-06 0)
(0.864259 4.10293e-06 0)
(0.864254 4.27749e-06 0)
(0.864248 4.23953e-06 0)
(0.864243 3.99066e-06 0)
(0.864238 3.56485e-06 0)
(0.864233 2.9902e-06 0)
(0.86423 2.26733e-06 0)
(0.864227 1.38788e-06 0)
(0.864226 3.69297e-07 0)
(0.864226 -7.36119e-07 0)
(0.864227 -1.86572e-06 0)
(0.864229 -2.98376e-06 0)
(0.864233 -4.09541e-06 0)
(0.864238 -5.234e-06 0)
(0.864245 -6.43849e-06 0)
(0.864254 -7.73932e-06 0)
(0.864264 -9.15591e-06 0)
(0.864276 -1.06948e-05 0)
(0.864291 -1.23368e-05 0)
(0.864308 -1.40192e-05 0)
(0.864326 -1.56298e-05 0)
(0.864347 -1.70285e-05 0)
(0.864369 -1.80854e-05 0)
(0.864392 -1.87125e-05 0)
(0.864416 -1.88707e-05 0)
(0.864439 -1.85546e-05 0)
(0.864462 -1.7774e-05 0)
(0.864483 -1.65481e-05 0)
(0.864502 -1.49141e-05 0)
(0.86452 -1.29342e-05 0)
(0.864534 -1.06813e-05 0)
(0.864546 -8.2033e-06 0)
(0.864555 -5.4987e-06 0)
(0.864559 -2.53656e-06 0)
(0.86456 6.94088e-07 0)
(0.864557 4.11747e-06 0)
(0.864549 7.60601e-06 0)
(0.864538 1.10326e-05 0)
(0.864522 1.42882e-05 0)
(0.864502 1.72429e-05 0)
(0.864479 1.97137e-05 0)
(0.864454 2.15117e-05 0)
(0.864426 2.25328e-05 0)
(0.864398 2.27909e-05 0)
(0.864371 2.23585e-05 0)
(0.864344 2.12998e-05 0)
(0.864318 1.9681e-05 0)
(0.864296 1.76239e-05 0)
(0.864276 1.53087e-05 0)
(0.864258 1.29106e-05 0)
(0.864244 1.05512e-05 0)
(0.864233 8.31204e-06 0)
(0.864224 6.26363e-06 0)
(0.864217 4.45712e-06 0)
(0.864213 2.90901e-06 0)
(0.864211 1.62922e-06 0)
(0.864209 6.59511e-07 0)
(0.864209 4.86196e-08 0)
(0.864209 -2.18201e-07 0)
(0.86421 -2.33731e-07 0)
(0.86421 -8.78436e-08 0)
(0.86421 2.04968e-07 0)
(0.864209 6.69846e-07 0)
(0.864208 1.27936e-06 0)
(0.864206 1.93288e-06 0)
(0.864203 2.53179e-06 0)
(0.864199 3.04004e-06 0)
(0.864195 3.4542e-06 0)
(0.864191 3.74816e-06 0)
(0.864186 3.87938e-06 0)
(0.864181 3.83315e-06 0)
(0.864176 3.6341e-06 0)
(0.864171 3.32142e-06 0)
(0.864167 2.92057e-06 0)
(0.864164 2.42813e-06 0)
(0.864161 1.83206e-06 0)
(0.864159 1.16518e-06 0)
(0.864158 5.13086e-07 0)
(0.864157 -5.94568e-08 0)
(0.864158 -5.67584e-07 0)
(0.864159 -1.05446e-06 0)
(0.86416 -1.48737e-06 0)
(0.864162 -1.77212e-06 0)
(0.864164 -1.88569e-06 0)
(0.864167 -1.90193e-06 0)
(0.86417 -1.85244e-06 0)
(0.864172 -1.6922e-06 0)
(0.864174 -1.46766e-06 0)
(0.864177 -1.36063e-06 0)
(0.864179 -1.48151e-06 0)
(0.864182 -1.7977e-06 0)
(0.864185 -2.35452e-06 0)
(0.864189 -3.40312e-06 0)
(0.864196 -5.24581e-06 0)
(0.864205 -8.16833e-06 0)
(0.864219 -1.25673e-05 0)
(0.864238 -1.89172e-05 0)
(0.864264 -2.75481e-05 0)
(0.864302 -3.88083e-05 0)
(0.864351 -5.24729e-05 0)
(1.28988 -0.000280786 0)
(1.28998 -0.000258931 0)
(1.2901 -0.000246491 0)
(1.29022 -0.00024249 0)
(1.29035 -0.00024408 0)
(1.29049 -0.000248867 0)
(1.29063 -0.000253956 0)
(1.29077 -0.000257184 0)
(1.29092 -0.000255814 0)
(1.29106 -0.000249434 0)
(1.29119 -0.000237815 0)
(1.29132 -0.000220842 0)
(1.29144 -0.000199732 0)
(1.29155 -0.000176086 0)
(1.29164 -0.000150977 0)
(1.29172 -0.0001258 0)
(1.29178 -0.000101803 0)
(1.29184 -7.98781e-05 0)
(1.29188 -6.06813e-05 0)
(1.29191 -4.44904e-05 0)
(1.29193 -3.12718e-05 0)
(1.29195 -2.08845e-05 0)
(1.29196 -1.31313e-05 0)
(1.29196 -7.67632e-06 0)
(1.29197 -4.09189e-06 0)
(1.29197 -2.06057e-06 0)
(1.29197 -1.35754e-06 0)
(1.29197 -1.62567e-06 0)
(1.29198 -2.40838e-06 0)
(1.29198 -3.41477e-06 0)
(1.29198 -4.56598e-06 0)
(1.29199 -5.80274e-06 0)
(1.29199 -6.98775e-06 0)
(1.292 -7.99329e-06 0)
(1.292 -8.77642e-06 0)
(1.29201 -9.33155e-06 0)
(1.29201 -9.59957e-06 0)
(1.29202 -9.45905e-06 0)
(1.29203 -8.82578e-06 0)
(1.29203 -7.74602e-06 0)
(1.29204 -6.36305e-06 0)
(1.29204 -4.79264e-06 0)
(1.29204 -3.05016e-06 0)
(1.29205 -1.09823e-06 0)
(1.29205 1.05045e-06 0)
(1.29205 3.27129e-06 0)
(1.29204 5.38293e-06 0)
(1.29204 7.23696e-06 0)
(1.29203 8.76699e-06 0)
(1.29203 9.96209e-06 0)
(1.29202 1.08049e-05 0)
(1.29201 1.12407e-05 0)
(1.292 1.12024e-05 0)
(1.292 1.06578e-05 0)
(1.29199 9.62733e-06 0)
(1.29198 8.15575e-06 0)
(1.29198 6.27782e-06 0)
(1.29197 4.02325e-06 0)
(1.29197 1.45509e-06 0)
(1.29197 -1.31221e-06 0)
(1.29197 -4.14897e-06 0)
(1.29197 -6.97269e-06 0)
(1.29197 -9.78543e-06 0)
(1.29198 -1.26637e-05 0)
(1.29199 -1.57169e-05 0)
(1.292 -1.90404e-05 0)
(1.29201 -2.26804e-05 0)
(1.29202 -2.66144e-05 0)
(1.29204 -3.07458e-05 0)
(1.29206 -3.49052e-05 0)
(1.29208 -3.88584e-05 0)
(1.2921 -4.23235e-05 0)
(1.29213 -4.5006e-05 0)
(1.29216 -4.665e-05 0)
(1.29219 -4.70902e-05 0)
(1.29221 -4.62774e-05 0)
(1.29224 -4.42662e-05 0)
(1.29227 -4.11695e-05 0)
(1.29229 -3.71117e-05 0)
(1.29231 -3.22066e-05 0)
(1.29233 -2.65593e-05 0)
(1.29235 -2.02674e-05 0)
(1.29236 -1.3404e-05 0)
(1.29236 -5.99999e-06 0)
(1.29236 1.93243e-06 0)
(1.29236 1.03054e-05 0)
(1.29235 1.89055e-05 0)
(1.29234 2.74008e-05 0)
(1.29232 3.54144e-05 0)
(1.2923 4.25831e-05 0)
(1.29227 4.85554e-05 0)
(1.29224 5.29864e-05 0)
(1.29221 5.56013e-05 0)
(1.29218 5.62957e-05 0)
(1.29214 5.51702e-05 0)
(1.29211 5.24602e-05 0)
(1.29208 4.84468e-05 0)
(1.29205 4.34333e-05 0)
(1.29203 3.77646e-05 0)
(1.29201 3.181e-05 0)
(1.29199 2.59014e-05 0)
(1.29198 2.02945e-05 0)
(1.29197 1.51813e-05 0)
(1.29196 1.07035e-05 0)
(1.29196 6.933e-06 0)
(1.29196 3.87305e-06 0)
(1.29196 1.51721e-06 0)
(1.29196 -9.63033e-08 0)
(1.29196 -9.21847e-07 0)
(1.29196 -1.00081e-06 0)
(1.29196 -4.87129e-07 0)
(1.29196 4.43598e-07 0)
(1.29196 1.68436e-06 0)
(1.29196 3.17175e-06 0)
(1.29196 4.79339e-06 0)
(1.29195 6.36813e-06 0)
(1.29195 7.72895e-06 0)
(1.29194 8.7934e-06 0)
(1.29194 9.5397e-06 0)
(1.29193 9.9459e-06 0)
(1.29193 9.9763e-06 0)
(1.29192 9.61174e-06 0)
(1.29191 8.87698e-06 0)
(1.29191 7.83699e-06 0)
(1.2919 6.55601e-06 0)
(1.2919 5.06473e-06 0)
(1.29189 3.40183e-06 0)
(1.29189 1.68485e-06 0)
(1.29189 7.89116e-08 0)
(1.29189 -1.32825e-06 0)
(1.29189 -2.56426e-06 0)
(1.29189 -3.64129e-06 0)
(1.2919 -4.45663e-06 0)
(1.2919 -4.92381e-06 0)
(1.2919 -5.13263e-06 0)
(1.29191 -5.21844e-06 0)
(1.29191 -5.15455e-06 0)
(1.29191 -4.90447e-06 0)
(1.29192 -4.7052e-06 0)
(1.29192 -4.94065e-06 0)
(1.29193 -5.83946e-06 0)
(1.29193 -7.56429e-06 0)
(1.29194 -1.04925e-05 0)
(1.29195 -1.52109e-05 0)
(1.29196 -2.23203e-05 0)
(1.29197 -3.23756e-05 0)
(1.292 -4.58578e-05 0)
(1.29202 -6.24775e-05 0)
(1.29206 -8.02694e-05 0)
(1.2921 -9.66413e-05 0)
(1.62222 -0.000360461 0)
(1.62226 -0.00034445 0)
(1.62232 -0.000346687 0)
(1.62239 -0.000356024 0)
(1.62247 -0.000366771 0)
(1.62256 -0.000378147 0)
(1.62265 -0.000387657 0)
(1.62275 -0.00039311 0)
(1.62284 -0.000391657 0)
(1.62294 -0.000381987 0)
(1.62303 -0.000364416 0)
(1.62312 -0.000338899 0)
(1.6232 -0.000307338 0)
(1.62327 -0.000271696 0)
(1.62333 -0.00023371 0)
(1.62339 -0.000195517 0)
(1.62343 -0.000159058 0)
(1.62347 -0.000125579 0)
(1.6235 -9.59518e-05 0)
(1.62352 -7.07333e-05 0)
(1.62354 -5.01263e-05 0)
(1.62355 -3.399e-05 0)
(1.62356 -2.18979e-05 0)
(1.62356 -1.33175e-05 0)
(1.62357 -7.74304e-06 0)
(1.62357 -4.6772e-06 0)
(1.62357 -3.56002e-06 0)
(1.62357 -3.78713e-06 0)
(1.62358 -4.8609e-06 0)
(1.62358 -6.49367e-06 0)
(1.62358 -8.50107e-06 0)
(1.62359 -1.06386e-05 0)
(1.62359 -1.2627e-05 0)
(1.6236 -1.42934e-05 0)
(1.6236 -1.55849e-05 0)
(1.62361 -1.64464e-05 0)
(1.62362 -1.67526e-05 0)
(1.62362 -1.63786e-05 0)
(1.62363 -1.53009e-05 0)
(1.62364 -1.36e-05 0)
(1.62364 -1.13719e-05 0)
(1.62365 -8.66388e-06 0)
(1.62365 -5.50065e-06 0)
(1.62365 -1.9517e-06 0)
(1.62365 1.83797e-06 0)
(1.62365 5.67309e-06 0)
(1.62365 9.34275e-06 0)
(1.62364 1.26562e-05 0)
(1.62364 1.54672e-05 0)
(1.62363 1.76766e-05 0)
(1.62362 1.92163e-05 0)
(1.62361 2.0031e-05 0)
(1.6236 2.00715e-05 0)
(1.62359 1.93032e-05 0)
(1.62359 1.77184e-05 0)
(1.62358 1.53451e-05 0)
(1.62357 1.22495e-05 0)
(1.62356 8.5396e-06 0)
(1.62356 4.36605e-06 0)
(1.62356 -9.16962e-08 0)
(1.62355 -4.6662e-06 0)
(1.62355 -9.25383e-06 0)
(1.62355 -1.38493e-05 0)
(1.62356 -1.85453e-05 0)
(1.62356 -2.34994e-05 0)
(1.62357 -2.88769e-05 0)
(1.62357 -3.47827e-05 0)
(1.62358 -4.12035e-05 0)
(1.62359 -4.79809e-05 0)
(1.62361 -5.48226e-05 0)
(1.62363 -6.13396e-05 0)
(1.62364 -6.70902e-05 0)
(1.62366 -7.1625e-05 0)
(1.62369 -7.45395e-05 0)
(1.62371 -7.55353e-05 0)
(1.62373 -7.4474e-05 0)
(1.62376 -7.13977e-05 0)
(1.62378 -6.64943e-05 0)
(1.6238 -6.00191e-05 0)
(1.62382 -5.22101e-05 0)
(1.62383 -4.3242e-05 0)
(1.62385 -3.32331e-05 0)
(1.62386 -2.22762e-05 0)
(1.62386 -1.04574e-05 0)
(1.62386 2.12912e-06 0)
(1.62386 1.53487e-05 0)
(1.62386 2.8939e-05 0)
(1.62385 4.24508e-05 0)
(1.62383 5.5281e-05 0)
(1.62382 6.67807e-05 0)
(1.6238 7.63551e-05 0)
(1.62377 8.35013e-05 0)
(1.62375 8.78293e-05 0)
(1.62372 8.91284e-05 0)
(1.6237 8.7448e-05 0)
(1.62367 8.31055e-05 0)
(1.62365 7.6596e-05 0)
(1.62363 6.84819e-05 0)
(1.62361 5.93384e-05 0)
(1.62359 4.97327e-05 0)
(1.62358 4.01831e-05 0)
(1.62357 3.11042e-05 0)
(1.62357 2.27988e-05 0)
(1.62357 1.54935e-05 0)
(1.62356 9.35468e-06 0)
(1.62356 4.46232e-06 0)
(1.62357 8.0672e-07 0)
(1.62357 -1.65257e-06 0)
(1.62357 -2.93005e-06 0)
(1.62358 -3.0455e-06 0)
(1.62358 -2.1103e-06 0)
(1.62358 -3.50153e-07 0)
(1.62358 1.97622e-06 0)
(1.62358 4.65597e-06 0)
(1.62358 7.50172e-06 0)
(1.62358 1.02882e-05 0)
(1.62357 1.27684e-05 0)
(1.62357 1.47625e-05 0)
(1.62356 1.61971e-05 0)
(1.62356 1.70486e-05 0)
(1.62355 1.72819e-05 0)
(1.62354 1.68572e-05 0)
(1.62353 1.57734e-05 0)
(1.62353 1.40959e-05 0)
(1.62352 1.19414e-05 0)
(1.62352 9.4294e-06 0)
(1.62351 6.65946e-06 0)
(1.62351 3.74983e-06 0)
(1.62351 8.71968e-07 0)
(1.62351 -1.79257e-06 0)
(1.62351 -4.12815e-06 0)
(1.62351 -6.08684e-06 0)
(1.62351 -7.61268e-06 0)
(1.62352 -8.6388e-06 0)
(1.62352 -9.19497e-06 0)
(1.62352 -9.41992e-06 0)
(1.62353 -9.42694e-06 0)
(1.62353 -9.29213e-06 0)
(1.62354 -9.22438e-06 0)
(1.62354 -9.61218e-06 0)
(1.62355 -1.09063e-05 0)
(1.62355 -1.35689e-05 0)
(1.62356 -1.81327e-05 0)
(1.62356 -2.52725e-05 0)
(1.62357 -3.56753e-05 0)
(1.62358 -4.99476e-05 0)
(1.6236 -6.84277e-05 0)
(1.62361 -9.02133e-05 0)
(1.62363 -0.00011167 0)
(1.62365 -0.000127926 0)
(1.8696 -0.000373771 0)
(1.86958 -0.000362031 0)
(1.86956 -0.000374673 0)
(1.86955 -0.00039458 0)
(1.86955 -0.000413394 0)
(1.86955 -0.000429767 0)
(1.86955 -0.000442961 0)
(1.86955 -0.000449943 0)
(1.86956 -0.000449189 0)
(1.86956 -0.000438585 0)
(1.86956 -0.000418624 0)
(1.86957 -0.000390022 0)
(1.86957 -0.000354414 0)
(1.86957 -0.000313729 0)
(1.86957 -0.000270425 0)
(1.86958 -0.000226901 0)
(1.86958 -0.000185033 0)
(1.86958 -0.000146325 0)
(1.86958 -0.000112015 0)
(1.86958 -8.28399e-05 0)
(1.86958 -5.8989e-05 0)
(1.86959 -4.02855e-05 0)
(1.86959 -2.62972e-05 0)
(1.86959 -1.64509e-05 0)
(1.86959 -1.01396e-05 0)
(1.86959 -6.7387e-06 0)
(1.86959 -5.60121e-06 0)
(1.86959 -6.10018e-06 0)
(1.86959 -7.70735e-06 0)
(1.8696 -1.00371e-05 0)
(1.8696 -1.27895e-05 0)
(1.86961 -1.56548e-05 0)
(1.86961 -1.83188e-05 0)
(1.86962 -2.05531e-05 0)
(1.86962 -2.22379e-05 0)
(1.86963 -2.32819e-05 0)
(1.86964 -2.35711e-05 0)
(1.86964 -2.30099e-05 0)
(1.86965 -2.15785e-05 0)
(1.86965 -1.93186e-05 0)
(1.86966 -1.62713e-05 0)
(1.86966 -1.24547e-05 0)
(1.86966 -7.9181e-06 0)
(1.86966 -2.81072e-06 0)
(1.86966 2.61429e-06 0)
(1.86966 8.06727e-06 0)
(1.86966 1.32836e-05 0)
(1.86966 1.80457e-05 0)
(1.86965 2.21694e-05 0)
(1.86964 2.5492e-05 0)
(1.86964 2.78785e-05 0)
(1.86963 2.92371e-05 0)
(1.86962 2.95201e-05 0)
(1.86961 2.87058e-05 0)
(1.8696 2.67879e-05 0)
(1.86959 2.37933e-05 0)
(1.86958 1.98156e-05 0)
(1.86958 1.50311e-05 0)
(1.86957 9.67709e-06 0)
(1.86956 4.00247e-06 0)
(1.86956 -1.78848e-06 0)
(1.86955 -7.58109e-06 0)
(1.86955 -1.33751e-05 0)
(1.86955 -1.92827e-05 0)
(1.86954 -2.5498e-05 0)
(1.86954 -3.22389e-05 0)
(1.86954 -3.96696e-05 0)
(1.86954 -4.78212e-05 0)
(1.86954 -5.65372e-05 0)
(1.86955 -6.54657e-05 0)
(1.86955 -7.40968e-05 0)
(1.86956 -8.1832e-05 0)
(1.86957 -8.80647e-05 0)
(1.86958 -9.22594e-05 0)
(1.86959 -9.40222e-05 0)
(1.8696 -9.31527e-05 0)
(1.86961 -8.96673e-05 0)
(1.86962 -8.37793e-05 0)
(1.86963 -7.58304e-05 0)
(1.86964 -6.61878e-05 0)
(1.86965 -5.51452e-05 0)
(1.86965 -4.28794e-05 0)
(1.86966 -2.94793e-05 0)
(1.86967 -1.50145e-05 0)
(1.86967 4.04244e-07 0)
(1.86967 1.65979e-05 0)
(1.86967 3.32683e-05 0)
(1.86967 4.99366e-05 0)
(1.86967 6.59149e-05 0)
(1.86966 8.03743e-05 0)
(1.86965 9.24914e-05 0)
(1.86964 0.00010158 0)
(1.86964 0.00010715 0)
(1.86963 0.000108939 0)
(1.86962 0.00010695 0)
(1.86961 0.000101503 0)
(1.8696 9.3193e-05 0)
(1.86959 8.2774e-05 0)
(1.86959 7.10347e-05 0)
(1.86958 5.87252e-05 0)
(1.86958 4.65154e-05 0)
(1.86958 3.49471e-05 0)
(1.86958 2.44037e-05 0)
(1.86959 1.51416e-05 0)
(1.86959 7.3538e-06 0)
(1.8696 1.18985e-06 0)
(1.8696 -3.28436e-06 0)
(1.86961 -6.10634e-06 0)
(1.86962 -7.3705e-06 0)
(1.86962 -7.17257e-06 0)
(1.86963 -5.62676e-06 0)
(1.86963 -2.93521e-06 0)
(1.86963 5.93659e-07 0)
(1.86964 4.61232e-06 0)
(1.86964 8.80593e-06 0)
(1.86963 1.28962e-05 0)
(1.86963 1.66194e-05 0)
(1.86963 1.97463e-05 0)
(1.86962 2.21195e-05 0)
(1.86962 2.3647e-05 0)
(1.86961 2.42713e-05 0)
(1.86961 2.39621e-05 0)
(1.8696 2.27245e-05 0)
(1.86959 2.06095e-05 0)
(1.86959 1.77357e-05 0)
(1.86958 1.42886e-05 0)
(1.86958 1.0468e-05 0)
(1.86957 6.43829e-06 0)
(1.86957 2.3546e-06 0)
(1.86957 -1.57376e-06 0)
(1.86957 -5.10466e-06 0)
(1.86957 -8.08484e-06 0)
(1.86958 -1.04888e-05 0)
(1.86958 -1.22917e-05 0)
(1.86958 -1.34115e-05 0)
(1.86959 -1.38676e-05 0)
(1.86959 -1.3886e-05 0)
(1.86959 -1.37594e-05 0)
(1.8696 -1.37263e-05 0)
(1.8696 -1.40783e-05 0)
(1.8696 -1.53026e-05 0)
(1.86961 -1.80245e-05 0)
(1.86961 -2.2883e-05 0)
(1.86961 -3.05218e-05 0)
(1.86961 -4.15713e-05 0)
(1.86961 -5.66621e-05 0)
(1.86961 -7.57862e-05 0)
(1.86961 -9.77295e-05 0)
(1.8696 -0.000118543 0)
(1.86959 -0.000132481 0)
(2.0403 -0.000316054 0)
(2.04022 -0.000307584 0)
(2.04012 -0.000322461 0)
(2.04004 -0.000344066 0)
(2.03995 -0.000363438 0)
(2.03985 -0.000379764 0)
(2.03975 -0.000392146 0)
(2.03965 -0.000398661 0)
(2.03955 -0.000397838 0)
(2.03945 -0.000388394 0)
(2.03935 -0.000370585 0)
(2.03925 -0.000345322 0)
(2.03917 -0.000313644 0)
(2.03909 -0.000277462 0)
(2.03902 -0.000239153 0)
(2.03896 -0.000200567 0)
(2.03891 -0.000163254 0)
(2.03887 -0.000128767 0)
(2.03883 -9.83416e-05 0)
(2.03881 -7.25374e-05 0)
(2.03879 -5.14513e-05 0)
(2.03878 -3.50177e-05 0)
(2.03877 -2.29448e-05 0)
(2.03876 -1.46854e-05 0)
(2.03876 -9.63207e-06 0)
(2.03876 -7.2348e-06 0)
(2.03876 -6.95521e-06 0)
(2.03876 -8.2423e-06 0)
(2.03876 -1.05894e-05 0)
(2.03876 -1.35837e-05 0)
(2.03877 -1.68909e-05 0)
(2.03877 -2.0206e-05 0)
(2.03878 -2.32384e-05 0)
(2.03878 -2.57537e-05 0)
(2.03878 -2.76082e-05 0)
(2.03879 -2.87157e-05 0)
(2.03879 -2.89861e-05 0)
(2.0388 -2.83147e-05 0)
(2.0388 -2.6622e-05 0)
(2.03881 -2.38844e-05 0)
(2.03881 -2.01228e-05 0)
(2.03881 -1.53811e-05 0)
(2.03881 -9.74638e-06 0)
(2.03881 -3.40109e-06 0)
(2.03881 3.35812e-06 0)
(2.03881 1.01763e-05 0)
(2.03881 1.67226e-05 0)
(2.03881 2.27339e-05 0)
(2.0388 2.80017e-05 0)
(2.0388 3.23405e-05 0)
(2.03879 3.55805e-05 0)
(2.03878 3.75877e-05 0)
(2.03877 3.82838e-05 0)
(2.03877 3.76443e-05 0)
(2.03876 3.56868e-05 0)
(2.03875 3.24766e-05 0)
(2.03874 2.81521e-05 0)
(2.03873 2.29391e-05 0)
(2.03873 1.71277e-05 0)
(2.03872 1.10167e-05 0)
(2.03871 4.84828e-06 0)
(2.0387 -1.24369e-06 0)
(2.03869 -7.26405e-06 0)
(2.03869 -1.33547e-05 0)
(2.03868 -1.97571e-05 0)
(2.03867 -2.67449e-05 0)
(2.03866 -3.45412e-05 0)
(2.03865 -4.32355e-05 0)
(2.03864 -5.27189e-05 0)
(2.03863 -6.26521e-05 0)
(2.03862 -7.24828e-05 0)
(2.03861 -8.15127e-05 0)
(2.0386 -8.9005e-05 0)
(2.0386 -9.43048e-05 0)
(2.03859 -9.69408e-05 0)
(2.03859 -9.66847e-05 0)
(2.03858 -9.3559e-05 0)
(2.03858 -8.78011e-05 0)
(2.03858 -7.97963e-05 0)
(2.03858 -6.99859e-05 0)
(2.03857 -5.87631e-05 0)
(2.03857 -4.63874e-05 0)
(2.03857 -3.29651e-05 0)
(2.03858 -1.8513e-05 0)
(2.03858 -3.06441e-06 0)
(2.03858 1.32462e-05 0)
(2.03859 3.01393e-05 0)
(2.0386 4.71617e-05 0)
(2.0386 6.36565e-05 0)
(2.03861 7.87781e-05 0)
(2.03862 9.16e-05 0)
(2.03863 0.000101286 0)
(2.03864 0.000107233 0)
(2.03865 0.000109128 0)
(2.03866 0.000106963 0)
(2.03867 0.000101044 0)
(2.03868 9.19731e-05 0)
(2.03869 8.05697e-05 0)
(2.0387 6.77292e-05 0)
(2.03871 5.43045e-05 0)
(2.03872 4.10451e-05 0)
(2.03873 2.85635e-05 0)
(2.03875 1.73018e-05 0)
(2.03876 7.53027e-06 0)
(2.03877 -5.8992e-07 0)
(2.03878 -6.9292e-06 0)
(2.03879 -1.13806e-05 0)
(2.0388 -1.39161e-05 0)
(2.03881 -1.46214e-05 0)
(2.03881 -1.36567e-05 0)
(2.03882 -1.12002e-05 0)
(2.03883 -7.4586e-06 0)
(2.03883 -2.72543e-06 0)
(2.03883 2.61067e-06 0)
(2.03884 8.14352e-06 0)
(2.03884 1.353e-05 0)
(2.03884 1.84972e-05 0)
(2.03884 2.28049e-05 0)
(2.03883 2.62326e-05 0)
(2.03883 2.85997e-05 0)
(2.03883 2.97944e-05 0)
(2.03882 2.97893e-05 0)
(2.03882 2.86204e-05 0)
(2.03881 2.63483e-05 0)
(2.03881 2.30666e-05 0)
(2.0388 1.89548e-05 0)
(2.0388 1.42737e-05 0)
(2.0388 9.2811e-06 0)
(2.03879 4.18411e-06 0)
(2.03879 -7.97438e-07 0)
(2.03879 -5.37908e-06 0)
(2.03879 -9.32295e-06 0)
(2.03879 -1.25647e-05 0)
(2.0388 -1.50964e-05 0)
(2.0388 -1.67989e-05 0)
(2.0388 -1.76002e-05 0)
(2.0388 -1.77165e-05 0)
(2.03881 -1.75095e-05 0)
(2.03881 -1.72321e-05 0)
(2.03881 -1.71215e-05 0)
(2.03881 -1.76077e-05 0)
(2.03881 -1.92864e-05 0)
(2.03881 -2.27222e-05 0)
(2.03881 -2.83872e-05 0)
(2.0388 -3.68796e-05 0)
(2.03879 -4.85961e-05 0)
(2.03877 -6.33924e-05 0)
(2.03875 -8.02106e-05 0)
(2.03871 -9.58987e-05 0)
(2.03866 -0.000105484 0)
(2.14032 -0.000199007 0)
(2.14019 -0.000193931 0)
(2.14004 -0.000203085 0)
(2.13989 -0.000216585 0)
(2.13974 -0.000227649 0)
(2.13957 -0.000237034 0)
(2.1394 -0.0002432 0)
(2.13922 -0.000245931 0)
(2.13903 -0.000243949 0)
(2.13885 -0.00023703 0)
(2.13867 -0.000224921 0)
(2.1385 -0.000208362 0)
(2.13834 -0.000188042 0)
(2.13819 -0.000165194 0)
(2.13807 -0.000141269 0)
(2.13796 -0.000117215 0)
(2.13787 -9.40563e-05 0)
(2.13779 -7.28995e-05 0)
(2.13773 -5.44631e-05 0)
(2.13768 -3.90011e-05 0)
(2.13765 -2.66092e-05 0)
(2.13762 -1.73333e-05 0)
(2.13761 -1.09926e-05 0)
(2.13759 -7.19049e-06 0)
(2.13759 -5.52847e-06 0)
(2.13758 -5.66113e-06 0)
(2.13758 -7.20648e-06 0)
(2.13758 -9.75669e-06 0)
(2.13758 -1.29581e-05 0)
(2.13759 -1.65193e-05 0)
(2.13759 -2.01676e-05 0)
(2.13759 -2.36374e-05 0)
(2.13759 -2.66962e-05 0)
(2.1376 -2.91775e-05 0)
(2.1376 -3.09858e-05 0)
(2.1376 -3.20504e-05 0)
(2.1376 -3.22653e-05 0)
(2.1376 -3.14865e-05 0)
(2.13761 -2.95865e-05 0)
(2.13761 -2.65045e-05 0)
(2.13761 -2.22525e-05 0)
(2.13761 -1.68982e-05 0)
(2.13761 -1.05659e-05 0)
(2.13761 -3.46247e-06 0)
(2.13761 4.11113e-06 0)
(2.13761 1.17948e-05 0)
(2.13761 1.92332e-05 0)
(2.1376 2.61233e-05 0)
(2.1376 3.22212e-05 0)
(2.1376 3.73241e-05 0)
(2.13759 4.1253e-05 0)
(2.13759 4.38567e-05 0)
(2.13758 4.50313e-05 0)
(2.13758 4.47416e-05 0)
(2.13757 4.30301e-05 0)
(2.13757 4.00166e-05 0)
(2.13756 3.58962e-05 0)
(2.13755 3.09343e-05 0)
(2.13755 2.54446e-05 0)
(2.13754 1.9746e-05 0)
(2.13753 1.41039e-05 0)
(2.13752 8.67148e-06 0)
(2.13751 3.4469e-06 0)
(2.1375 -1.73543e-06 0)
(2.13748 -7.16818e-06 0)
(2.13747 -1.31947e-05 0)
(2.13745 -2.01138e-05 0)
(2.13743 -2.8089e-05 0)
(2.13741 -3.70775e-05 0)
(2.13739 -4.67907e-05 0)
(2.13737 -5.66978e-05 0)
(2.13735 -6.6083e-05 0)
(2.13733 -7.41548e-05 0)
(2.13731 -8.01848e-05 0)
(2.13729 -8.36413e-05 0)
(2.13727 -8.42743e-05 0)
(2.13726 -8.21284e-05 0)
(2.13724 -7.74876e-05 0)
(2.13722 -7.07819e-05 0)
(2.13721 -6.24876e-05 0)
(2.1372 -5.30354e-05 0)
(2.13719 -4.27289e-05 0)
(2.13719 -3.16951e-05 0)
(2.13719 -1.99036e-05 0)
(2.13719 -7.26644e-06 0)
(2.13719 6.2283e-06 0)
(2.1372 2.04206e-05 0)
(2.13722 3.49461e-05 0)
(2.13723 4.9239e-05 0)
(2.13725 6.25482e-05 0)
(2.13728 7.3997e-05 0)
(2.1373 8.27172e-05 0)
(2.13733 8.80224e-05 0)
(2.13735 8.95336e-05 0)
(2.13738 8.72152e-05 0)
(2.13741 8.13539e-05 0)
(2.13743 7.25196e-05 0)
(2.13746 6.14987e-05 0)
(2.13748 4.91763e-05 0)
(2.1375 3.64018e-05 0)
(2.13753 2.39029e-05 0)
(2.13755 1.22628e-05 0)
(2.13757 1.91698e-06 0)
(2.13758 -6.85504e-06 0)
(2.1376 -1.39117e-05 0)
(2.13761 -1.91826e-05 0)
(2.13762 -2.26052e-05 0)
(2.13763 -2.41326e-05 0)
(2.13764 -2.37959e-05 0)
(2.13765 -2.17372e-05 0)
(2.13766 -1.81716e-05 0)
(2.13767 -1.33395e-05 0)
(2.13767 -7.51829e-06 0)
(2.13768 -1.06059e-06 0)
(2.13768 5.6266e-06 0)
(2.13768 1.21627e-05 0)
(2.13768 1.82408e-05 0)
(2.13768 2.36008e-05 0)
(2.13768 2.79928e-05 0)
(2.13768 3.11898e-05 0)
(2.13768 3.3034e-05 0)
(2.13768 3.34725e-05 0)
(2.13768 3.25508e-05 0)
(2.13767 3.03591e-05 0)
(2.13767 2.69952e-05 0)
(2.13767 2.26042e-05 0)
(2.13767 1.74333e-05 0)
(2.13766 1.17995e-05 0)
(2.13766 5.99959e-06 0)
(2.13766 2.87794e-07 0)
(2.13766 -5.06509e-06 0)
(2.13766 -9.78187e-06 0)
(2.13766 -1.36924e-05 0)
(2.13766 -1.67386e-05 0)
(2.13766 -1.88538e-05 0)
(2.13766 -1.99949e-05 0)
(2.13767 -2.02804e-05 0)
(2.13767 -1.99268e-05 0)
(2.13767 -1.91388e-05 0)
(2.13767 -1.81586e-05 0)
(2.13767 -1.73069e-05 0)
(2.13767 -1.69847e-05 0)
(2.13766 -1.7477e-05 0)
(2.13765 -1.90608e-05 0)
(2.13764 -2.22188e-05 0)
(2.13762 -2.70236e-05 0)
(2.13759 -3.34096e-05 0)
(2.13755 -4.07936e-05 0)
(2.13749 -4.75761e-05 0)
(2.13742 -5.11181e-05 0)
(2.17328 -4.76427e-05 0)
(2.17314 -4.60981e-05 0)
(2.17296 -4.49329e-05 0)
(2.17279 -4.35469e-05 0)
(2.17261 -4.11464e-05 0)
(2.17242 -3.84641e-05 0)
(2.17221 -3.52598e-05 0)
(2.172 -3.16893e-05 0)
(2.17178 -2.76825e-05 0)
(2.17157 -2.3683e-05 0)
(2.17135 -1.93926e-05 0)
(2.17115 -1.48853e-05 0)
(2.17097 -1.03847e-05 0)
(2.1708 -6.13907e-06 0)
(2.17065 -2.22382e-06 0)
(2.17052 1.37511e-06 0)
(2.17041 4.43271e-06 0)
(2.17032 6.74805e-06 0)
(2.17025 8.3036e-06 0)
(2.1702 9.09081e-06 0)
(2.17016 9.03827e-06 0)
(2.17013 8.11023e-06 0)
(2.17011 6.38186e-06 0)
(2.17009 3.9728e-06 0)
(2.17009 9.69784e-07 0)
(2.17008 -2.52567e-06 0)
(2.17008 -6.34521e-06 0)
(2.17008 -1.03079e-05 0)
(2.17008 -1.42958e-05 0)
(2.17008 -1.82201e-05 0)
(2.17008 -2.19421e-05 0)
(2.17008 -2.52808e-05 0)
(2.17008 -2.80957e-05 0)
(2.17008 -3.03268e-05 0)
(2.17008 -3.19436e-05 0)
(2.17008 -3.28651e-05 0)
(2.17008 -3.29423e-05 0)
(2.17008 -3.20133e-05 0)
(2.17008 -2.99637e-05 0)
(2.17008 -2.6738e-05 0)
(2.17008 -2.23292e-05 0)
(2.17008 -1.6789e-05 0)
(2.17008 -1.02528e-05 0)
(2.17007 -2.9461e-06 0)
(2.17007 4.83581e-06 0)
(2.17007 1.27627e-05 0)
(2.17007 2.05032e-05 0)
(2.17007 2.77491e-05 0)
(2.17007 3.42309e-05 0)
(2.17007 3.97224e-05 0)
(2.17007 4.4038e-05 0)
(2.17007 4.70297e-05 0)
(2.17007 4.85975e-05 0)
(2.17006 4.87139e-05 0)
(2.17006 4.74449e-05 0)
(2.17006 4.49514e-05 0)
(2.17006 4.14712e-05 0)
(2.17005 3.72962e-05 0)
(2.17005 3.27484e-05 0)
(2.17004 2.81458e-05 0)
(2.17003 2.37539e-05 0)
(2.17002 1.97296e-05 0)
(2.17001 1.60732e-05 0)
(2.17 1.26089e-05 0)
(2.16999 9.00996e-06 0)
(2.16997 4.86969e-06 0)
(2.16995 -1.95958e-07 0)
(2.16993 -6.44144e-06 0)
(2.16991 -1.39055e-05 0)
(2.16988 -2.23648e-05 0)
(2.16985 -3.13388e-05 0)
(2.16983 -4.01493e-05 0)
(2.1698 -4.80282e-05 0)
(2.16977 -5.42533e-05 0)
(2.16974 -5.82834e-05 0)
(2.16972 -5.98584e-05 0)
(2.16969 -5.90326e-05 0)
(2.16967 -5.61271e-05 0)
(2.16964 -5.16201e-05 0)
(2.16962 -4.60179e-05 0)
(2.16961 -3.9751e-05 0)
(2.16959 -3.31064e-05 0)
(2.16958 -2.61889e-05 0)
(2.16958 -1.89198e-05 0)
(2.16958 -1.10987e-05 0)
(2.16959 -2.53407e-06 0)
(2.1696 6.81442e-06 0)
(2.16961 1.67521e-05 0)
(2.16964 2.68501e-05 0)
(2.16966 3.64923e-05 0)
(2.16969 4.49353e-05 0)
(2.16972 5.13993e-05 0)
(2.16976 5.5207e-05 0)
(2.16979 5.59333e-05 0)
(2.16983 5.34894e-05 0)
(2.16986 4.81137e-05 0)
(2.1699 4.03091e-05 0)
(2.16993 3.07665e-05 0)
(2.16996 2.02715e-05 0)
(2.16999 9.58655e-06 0)
(2.17002 -6.53662e-07 0)
(2.17004 -9.97702e-06 0)
(2.17006 -1.8047e-05 0)
(2.17008 -2.46316e-05 0)
(2.1701 -2.95988e-05 0)
(2.17011 -3.29046e-05 0)
(2.17012 -3.45487e-05 0)
(2.17013 -3.45317e-05 0)
(2.17014 -3.28682e-05 0)
(2.17015 -2.96408e-05 0)
(2.17015 -2.50271e-05 0)
(2.17016 -1.92684e-05 0)
(2.17016 -1.26321e-05 0)
(2.17017 -5.41656e-06 0)
(2.17017 2.0329e-06 0)
(2.17017 9.35236e-06 0)
(2.17018 1.62059e-05 0)
(2.17018 2.22988e-05 0)
(2.17018 2.73667e-05 0)
(2.17018 3.11852e-05 0)
(2.17018 3.35935e-05 0)
(2.17018 3.45129e-05 0)
(2.17018 3.39568e-05 0)
(2.17018 3.20155e-05 0)
(2.17018 2.88145e-05 0)
(2.17018 2.45004e-05 0)
(2.17018 1.9281e-05 0)
(2.17018 1.34571e-05 0)
(2.17018 7.38077e-06 0)
(2.17018 1.36404e-06 0)