/*--------------------------------*- C++ -*----------------------------------*\
| =========                 |                                                 |
| \\      /  F ield         | OpenFOAM: The Open Source CFD Toolbox           |
|  \\    /   O peration     | Version:  2406                                  |
|   \\  /    A nd           | Website:  www.openfoam.com                      |
|    \\/     M anipulation  |                                                 |
\*---------------------------------------------------------------------------*/
FoamFile
{
    version     2.0;
    format      ascii;
    arch        "LSB;label=32;scalar=64";
    class       surfaceScalarField;
    location    "0.2";
    object      phi;
}
// * * * * * * * * * * * * * * * * * * * * * * * * * * * * * * * * * * * * * //

dimensions      [0 3 -1 0 0 0 0];

oriented        oriented;

internalField   nonuniform List<scalar> 
4335
(
4.76017e-05
1.26123e-10
4.76016e-05
1.29434e-10
4.76015e-05
8.91528e-11
4.76015e-05
5.20464e-11
4.76014e-05
5.65594e-11
4.76013e-05
6.22263e-11
4.76012e-05
6.7766e-11
4.76012e-05
7.07348e-11
4.76011e-05
7.59512e-11
4.7601e-05
7.50771e-11
4.76009e-05
5.75573e-11
4.76008e-05
5.42206e-11
4.76008e-05
5.69074e-11
4.76008e-05
6.0575e-11
4.76007e-05
5.75193e-11
4.76007e-05
4.57892e-11
4.76006e-05
2.86644e-11
4.76006e-05
1.96093e-11
4.76006e-05
2.35109e-11
4.76006e-05
2.52983e-11
4.76006e-05
1.42598e-11
4.76005e-05
1.89201e-12
4.76005e-05
3.73211e-13
4.76005e-05
8.04833e-12
4.76005e-05
1.27134e-11
4.76005e-05
1.03917e-11
4.76005e-05
5.10908e-12
4.76005e-05
1.43045e-13
4.76005e-05
-2.13981e-12
4.76005e-05
2.55355e-12
4.76005e-05
1.22905e-11
4.76004e-05
1.71152e-11
4.76004e-05
1.4909e-11
4.76004e-05
1.19469e-11
4.76004e-05
1.63433e-11
4.76004e-05
2.55092e-11
4.76004e-05
3.16629e-11
4.76004e-05
2.97154e-11
4.76004e-05
2.40052e-11
4.76004e-05
2.03389e-11
4.76004e-05
2.06272e-11
4.76004e-05
2.2438e-11
4.76004e-05
2.00928e-11
4.76004e-05
9.8737e-12
4.76004e-05
-5.8645e-12
4.76004e-05
-1.55197e-11
4.76004e-05
-1.16525e-11
4.76004e-05
-1.10403e-12
4.76004e-05
5.87169e-12
4.76004e-05
3.47293e-12
4.76004e-05
-3.19265e-12
4.76004e-05
-6.71877e-12
4.76004e-05
-2.41361e-12
4.76004e-05
5.98194e-12
4.76004e-05
1.04977e-11
4.76004e-05
6.24481e-12
4.76004e-05
-1.82769e-12
4.76004e-05
-3.16311e-12
4.76004e-05
4.94854e-12
4.76004e-05
1.40479e-11
4.76004e-05
1.33247e-11
4.76004e-05
3.20231e-12
4.76004e-05
-6.36121e-12
4.76004e-05
-7.95449e-12
4.76004e-05
-3.53282e-12
4.76004e-05
-6.30236e-13
4.76004e-05
-5.02734e-12
4.76004e-05
-1.42817e-11
4.76004e-05
-2.06846e-11
4.76004e-05
-1.72425e-11
4.76004e-05
-6.48035e-12
4.76004e-05
6.49446e-13
4.76004e-05
-2.89533e-12
4.76004e-05
-1.06267e-11
4.76004e-05
-1.38738e-11
4.76004e-05
-8.79828e-12
4.76004e-05
-1.5885e-12
4.76004e-05
9.07334e-13
4.76004e-05
-2.93633e-12
4.76004e-05
-7.78341e-12
4.76004e-05
-6.93741e-12
4.76004e-05
-3.05608e-13
4.76004e-05
5.54166e-12
4.76004e-05
3.9378e-12
4.76004e-05
-4.9307e-12
4.76004e-05
-1.312e-11
4.76005e-05
-1.41931e-11
4.76005e-05
-9.24876e-12
4.76005e-05
-5.80056e-12
4.76005e-05
-8.47519e-12
4.76005e-05
-1.51379e-11
4.76005e-05
-1.87549e-11
4.76005e-05
-1.48564e-11
4.76005e-05
-6.51274e-12
4.76006e-05
-1.98389e-12
4.76006e-05
-5.25401e-12
4.76006e-05
-1.12589e-11
4.76006e-05
-1.19254e-11
4.76006e-05
-5.78315e-12
4.76006e-05
8.66596e-13
4.76006e-05
1.63021e-12
4.76006e-05
-2.76569e-12
4.76006e-05
-6.60837e-12
4.76006e-05
-4.59002e-12
4.76006e-05
3.4412e-12
4.76006e-05
1.15575e-11
4.76006e-05
1.31521e-11
4.76006e-05
7.87857e-12
4.76006e-05
2.97018e-12
4.76006e-05
4.3492e-12
4.76006e-05
9.45463e-12
4.76006e-05
1.12624e-11
4.76006e-05
7.23299e-12
4.76006e-05
6.12385e-13
4.76006e-05
-3.16461e-12
4.76006e-05
5.23298e-13
4.76006e-05
8.3159e-12
4.76006e-05
1.26539e-11
4.76006e-05
1.00493e-11
4.76006e-05
5.89635e-12
4.76006e-05
5.15134e-12
4.76006e-05
7.50703e-12
4.76005e-05
9.86406e-12
4.76005e-05
9.29849e-12
4.76005e-05
4.47984e-12
4.76005e-05
-2.54973e-12
4.76005e-05
-6.64484e-12
4.76005e-05
-3.01915e-12
4.76005e-05
6.19461e-13
4.76005e-05
-4.45691e-12
4.76006e-05
-1.24358e-11
4.76006e-05
-1.4591e-11
4.76006e-05
-1.13107e-11
4.76006e-05
-4.93001e-12
4.76006e-05
2.92241e-12
4.76006e-05
5.60513e-12
4.76006e-05
5.45395e-13
4.76006e-05
-2.5291e-12
4.76006e-05
2.54498e-12
4.76006e-05
1.28047e-11
4.76006e-05
1.92897e-11
4.76006e-05
1.59118e-11
4.76006e-05
1.0792e-11
4.76006e-05
1.16535e-11
4.76006e-05
1.74731e-11
4.76006e-05
2.28589e-11
4.76005e-05
1.82652e-11
4.76005e-05
1.31792e-12
4.76006e-05
-2.25767e-11
-3.20118e-11
0.000128667
2.04013e-10
0.000128667
2.6482e-10
0.000128667
3.01982e-10
0.000128667
2.96636e-10
0.000128667
2.70973e-10
0.000128666
2.77012e-10
0.000128666
3.07007e-10
0.000128666
3.14979e-10
0.000128666
2.92684e-10
0.000128666
3.16423e-10
0.000128665
3.28654e-10
0.000128665
3.20927e-10
0.000128665
2.95412e-10
0.000128665
2.58306e-10
0.000128665
2.24036e-10
0.000128665
2.00613e-10
0.000128664
1.79381e-10
0.000128664
1.54407e-10
0.000128664
1.30076e-10
0.000128664
1.11205e-10
0.000128664
9.82802e-11
0.000128664
8.75184e-11
0.000128664
7.68873e-11
0.000128664
6.83889e-11
0.000128664
5.96921e-11
0.000128664
4.71724e-11
0.000128664
3.50547e-11
0.000128664
2.94998e-11
0.000128664
2.97015e-11
0.000128664
3.3734e-11
0.000128664
4.28081e-11
0.000128664
5.44389e-11
0.000128664
5.97462e-11
0.000128664
5.38101e-11
0.000128664
4.34242e-11
0.000128664
3.90499e-11
0.000128664
4.2735e-11
0.000128664
4.83418e-11
0.000128664
5.08522e-11
0.000128664
4.81617e-11
0.000128664
3.8916e-11
0.000128664
2.38977e-11
0.000128663
8.53067e-12
0.000128663
-3.3575e-12
0.000128663
-1.3989e-11
0.000128663
-2.44683e-11
0.000128664
-3.0383e-11
0.000128664
-2.76419e-11
0.000128663
-1.90322e-11
0.000128663
-1.24149e-11
0.000128664
-1.23326e-11
0.000128664
-1.69217e-11
0.000128664
-2.07812e-11
0.000128664
-1.93491e-11
0.000128664
-1.21627e-11
0.000128664
-4.91003e-12
0.000128664
-4.48866e-12
0.000128664
-9.83272e-12
0.000128664
-1.27809e-11
0.000128664
-8.56482e-12
0.000128664
-2.20608e-12
0.000128664
-3.02252e-12
0.000128664
-1.31804e-11
0.000128664
-2.59144e-11
0.000128664
-3.3863e-11
0.000128664
-3.45185e-11
0.000128664
-3.14741e-11
0.000128664
-3.06531e-11
0.000128664
-3.43571e-11
0.000128664
-3.80118e-11
0.000128664
-3.40315e-11
0.000128664
-2.17816e-11
0.000128664
-1.00863e-11
0.000128664
-7.3919e-12
0.000128664
-1.24476e-11
0.000128664
-1.55869e-11
0.000128664
-9.84607e-12
0.000128664
1.91103e-12
0.000128664
1.10431e-11
0.000128664
1.23683e-11
0.000128664
8.57118e-12
0.000128664
6.5189e-12
0.000128664
1.02901e-11
0.000128664
1.457e-11
0.000128664
1.17384e-11
0.000128664
-9.81921e-13
0.000128664
-1.68355e-11
0.000128664
-2.42236e-11
0.000128664
-1.94084e-11
0.000128664
-9.19206e-12
0.000128664
-3.61752e-12
0.000128664
-6.09829e-12
0.000128664
-1.04139e-11
0.000128664
-7.79012e-12
0.000128664
2.679e-12
0.000128664
1.18615e-11
0.000128664
1.2286e-11
0.000128664
6.07599e-12
0.000128664
1.90324e-12
0.000128664
5.51726e-12
0.000128664
1.33046e-11
0.000128664
1.80968e-11
0.000128664
1.69767e-11
0.000128664
1.34908e-11
0.000128664
1.38551e-11
0.000128664
2.05485e-11
0.000128664
2.81836e-11
0.000128664
2.88175e-11
0.000128664
2.04367e-11
0.000128664
1.08617e-11
0.000128664
8.38988e-12
0.000128664
1.26551e-11
0.000128664
1.66495e-11
0.000128664
1.55595e-11
0.000128664
9.32728e-12
0.000128664
5.92548e-12
0.000128664
1.1189e-11
0.000128664
2.03185e-11
0.000128664
2.4976e-11
0.000128664
2.20571e-11
0.000128664
1.6269e-11
0.000128664
1.41103e-11
0.000128664
1.74112e-11
0.000128664
2.12444e-11
0.000128664
1.96297e-11
0.000128664
9.92915e-12
0.000128664
-3.91203e-12
0.000128664
-1.09691e-11
0.000128664
-7.95169e-12
0.000128664
-5.50246e-12
0.000128664
-1.07659e-11
0.000128664
-1.70927e-11
0.000128664
-1.94165e-11
0.000128664
-1.79391e-11
0.000128664
-1.32407e-11
0.000128664
-1.14351e-11
0.000128664
-1.40052e-11
0.000128664
-9.85294e-12
0.000128664
3.93589e-12
0.000128664
2.13917e-11
0.000128664
3.37121e-11
0.000128664
3.39146e-11
0.000128664
3.22045e-11
0.000128664
3.92397e-11
0.000128664
4.66581e-11
0.000128664
4.60552e-11
0.000128664
3.91745e-11
0.000128664
1.85455e-11
0.000128664
-2.60512e-11
-5.18048e-11
0.000196149
3.12206e-10
0.000196149
3.42344e-10
0.000196149
3.88812e-10
0.000196149
4.36204e-10
0.000196148
4.57653e-10
0.000196148
4.57489e-10
0.000196148
4.61455e-10
0.000196148
5.18808e-10
0.000196148
5.55857e-10
0.000196147
5.77538e-10
0.000196147
5.90651e-10
0.000196147
5.82003e-10
0.000196147
5.58408e-10
0.000196146
5.19536e-10
0.000196146
4.80517e-10
0.000196146
4.5632e-10
0.000196146
4.2928e-10
0.000196146
3.83565e-10
0.000196145
3.29803e-10
0.000196145
2.82869e-10
0.000196145
2.47663e-10
0.000196145
2.19404e-10
0.000196145
1.90859e-10
0.000196145
1.63527e-10
0.000196145
1.41319e-10
0.000196145
1.2142e-10
0.000196145
1.03571e-10
0.000196145
9.58882e-11
0.000196145
1.01479e-10
0.000196144
1.10758e-10
0.000196144
1.13047e-10
0.000196144
1.07625e-10
0.000196144
9.95761e-11
0.000196144
8.96697e-11
0.000196144
7.56722e-11
0.000196144
6.12406e-11
0.000196144
5.3359e-11
0.000196144
5.20977e-11
0.000196144
5.21005e-11
0.000196144
4.93903e-11
0.000196144
4.10198e-11
0.000196144
2.58638e-11
0.000196144
8.67604e-12
0.000196144
-2.36078e-12
0.000196144
-4.80988e-12
0.000196144
-5.63201e-12
0.000196144
-1.16461e-11
0.000196144
-2.03461e-11
0.000196144
-2.46229e-11
0.000196144
-2.22127e-11
0.000196144
-1.725e-11
0.000196144
-1.46228e-11
0.000196144
-1.61778e-11
0.000196144
-1.97468e-11
0.000196144
-1.99464e-11
0.000196144
-1.35864e-11
0.000196144
-5.19821e-12
0.000196144
-1.23352e-12
0.000196144
-5.04754e-12
0.000196144
-1.0772e-11
0.000196144
-1.1035e-11
0.000196144
-7.08871e-12
0.000196144
-6.72968e-12
0.000196144
-1.46751e-11
0.000196144
-2.75522e-11
0.000196144
-3.75748e-11
0.000196144
-3.88567e-11
0.000196144
-3.28743e-11
0.000196144
-2.73672e-11
0.000196144
-2.91219e-11
0.000196144
-3.61661e-11
0.000196144
-3.8804e-11
0.000196144
-3.08937e-11
0.000196144
-1.75382e-11
0.000196144
-8.75751e-12
0.000196144
-8.01924e-12
0.000196144
-9.31984e-12
0.000196144
-5.54794e-12
0.000196144
3.8412e-12
0.000196144
1.26495e-11
0.000196144
1.45592e-11
0.000196144
9.23529e-12
0.000196144
1.92637e-12
0.000196144
-1.84361e-12
0.000196144
-2.45228e-12
0.000196144
-5.51552e-12
0.000196144
-1.49582e-11
0.000196145
-2.65011e-11
0.000196145
-3.16334e-11
0.000196145
-2.65292e-11
0.000196145
-1.59648e-11
0.000196145
-8.68604e-12
0.000196145
-8.88102e-12
0.000196145
-1.16295e-11
0.000196145
-8.59663e-12
0.000196145
1.85617e-12
0.000196145
1.2571e-11
0.000196145
1.53239e-11
0.000196145
1.00528e-11
0.000196145
4.61261e-12
0.000196145
5.52082e-12
0.000196145
1.18667e-11
0.000196145
1.75037e-11
0.000196145
1.73296e-11
0.000196145
1.22766e-11
0.000196145
8.22152e-12
0.000196145
1.01598e-11
0.000196145
1.58277e-11
0.000196145
1.86538e-11
0.000196145
1.47353e-11
0.000196145
7.80037e-12
0.000196145
4.34369e-12
0.000196145
7.99923e-12
0.000196145
1.50694e-11
0.000196145
1.79318e-11
0.000196145
1.467e-11
0.000196145
1.14413e-11
0.000196145
1.28574e-11
0.000196145
1.71356e-11
0.000196145
2.12355e-11
0.000196145
2.30533e-11
0.000196145
2.27164e-11
0.000196145
2.28798e-11
0.000196145
2.30635e-11
0.000196145
2.12635e-11
0.000196145
1.58469e-11
0.000196145
5.48728e-12
0.000196145
-6.68919e-12
0.000196145
-1.30121e-11
0.000196145
-1.53002e-11
0.000196145
-2.01091e-11
0.000196145
-2.58111e-11
0.000196145
-3.06955e-11
0.000196145
-3.61711e-11
0.000196145
-3.79035e-11
0.000196145
-3.53549e-11
0.000196145
-3.12102e-11
0.000196145
-2.03017e-11
0.000196145
-2.07018e-12
0.000196145
1.28846e-11
0.000196145
2.06436e-11
0.000196145
2.334e-11
0.000196145
3.09075e-11
0.000196145
4.63262e-11
0.000196145
5.36145e-11
0.000196145
4.31878e-11
0.000196145
2.71796e-11
0.000196145
1.26221e-11
0.000196145
-1.59906e-11
-4.46636e-11
0.000250564
4.04791e-10
0.000250564
4.56334e-10
0.000250564
5.07299e-10
0.000250564
5.27996e-10
0.000250564
5.52078e-10
0.000250564
5.93969e-10
0.000250564
6.01757e-10
0.000250563
6.0844e-10
0.000250563
6.53382e-10
0.000250563
6.85214e-10
0.000250563
7.11324e-10
0.000250563
7.25734e-10
0.000250563
7.42419e-10
0.000250563
7.56337e-10
0.000250562
7.41457e-10
0.000250562
6.98835e-10
0.000250562
6.46309e-10
0.000250562
5.9115e-10
0.000250562
5.33594e-10
0.000250562
4.71296e-10
0.000250561
4.08032e-10
0.000250561
3.54215e-10
0.000250561
3.11496e-10
0.000250561
2.74826e-10
0.000250561
2.43257e-10
0.000250561
2.17629e-10
0.000250561
1.98582e-10
0.000250561
1.88121e-10
0.00025056
1.84813e-10
0.00025056
1.81267e-10
0.00025056
1.70017e-10
0.00025056
1.49855e-10
0.00025056
1.28095e-10
0.00025056
1.13149e-10
0.00025056
1.03334e-10
0.00025056
9.14855e-11
0.00025056
7.7537e-11
0.00025056
6.64031e-11
0.00025056
5.96377e-11
0.00025056
5.526e-11
0.00025056
4.97799e-11
0.00025056
3.9042e-11
0.00025056
2.4459e-11
0.00025056
8.91636e-12
0.00025056
-9.39389e-13
0.00025056
-4.90329e-12
0.00025056
-8.653e-12
0.00025056
-1.64993e-11
0.00025056
-2.5727e-11
0.00025056
-3.09782e-11
0.00025056
-3.04627e-11
0.00025056
-2.64469e-11
0.00025056
-2.26304e-11
0.00025056
-2.14781e-11
0.00025056
-2.23337e-11
0.00025056
-2.12868e-11
0.00025056
-1.50902e-11
0.00025056
-7.19849e-12
0.00025056
-5.35199e-12
0.00025056
-1.35291e-11
0.00025056
-2.49983e-11
0.00025056
-3.11516e-11
0.00025056
-3.07225e-11
0.00025056
-3.02686e-11
0.00025056
-3.54608e-11
0.00025056
-4.52754e-11
0.00025056
-5.332e-11
0.00025056
-5.44944e-11
0.00025056
-4.94183e-11
0.00025056
-4.44357e-11
0.00025056
-4.54466e-11
0.00025056
-5.08477e-11
0.00025056
-5.27415e-11
0.00025056
-4.59978e-11
0.00025056
-3.40961e-11
0.00025056
-2.44987e-11
0.00025056
-2.00722e-11
0.00025056
-1.69917e-11
0.00025056
-1.05415e-11
0.00025056
-9.06137e-13
0.00025056
7.58e-12
0.00025056
9.63898e-12
0.00025056
4.0998e-12
0.00025056
-4.7686e-12
0.00025056
-1.0768e-11
0.00025056
-1.08903e-11
0.00025056
-8.72009e-12
0.00025056
-9.58798e-12
0.00025056
-1.40027e-11
0.00025056
-1.71073e-11
0.00025056
-1.41442e-11
0.00025056
-5.61733e-12
0.00025056
2.85207e-12
0.00025056
6.68943e-12
0.00025056
7.29573e-12
0.00025056
9.58941e-12
0.00025056
1.59095e-11
0.00025056
2.26174e-11
0.00025056
2.36706e-11
0.00025056
1.76193e-11
0.00025056
9.254e-12
0.00025056
4.46102e-12
0.00025056
4.55746e-12
0.00025056
5.85391e-12
0.00025056
4.10884e-12
0.00025056
-1.55085e-12
0.00025056
-7.11338e-12
0.00025056
-7.21395e-12
0.00025056
-1.78365e-12
0.00025056
3.67974e-12
0.00025056
3.94033e-12
0.00025056
-4.90217e-13
0.00025056
-3.17055e-12
0.00025056
9.63837e-13
0.00025056
9.009e-12
0.00025056
1.41093e-11
0.00025056
1.58202e-11
0.00025056
1.69762e-11
0.00025056
1.96658e-11
0.00025056
2.62129e-11
0.00025056
3.44418e-11
0.00025056
3.89148e-11
0.00025056
3.7603e-11
0.00025056
3.23238e-11
0.00025056
2.62001e-11
0.00025056
2.24097e-11
0.00025056
1.79625e-11
0.00025056
7.90309e-12
0.00025056
-5.11529e-12
0.00025056
-1.77886e-11
0.00025056
-2.87656e-11
0.00025056
-3.40868e-11
0.00025056
-3.44658e-11
0.00025056
-3.74061e-11
0.00025056
-4.08093e-11
0.00025056
-3.87471e-11
0.00025056
-3.30741e-11
0.00025056
-2.32363e-11
0.00025056
-1.16456e-11
0.00025056
-6.43313e-12
0.00025056
-4.78717e-12
0.00025056
2.68455e-12
0.000250561
2.15596e-11
0.000250561
4.50535e-11
0.000250561
5.43852e-11
0.000250561
4.64311e-11
0.000250561
2.79166e-11
0.000250561
5.62187e-12
0.000250561
-3.1011e-12
-2.22254e-11
0.00029237
4.21553e-10
0.00029237
4.45791e-10
0.00029237
4.93279e-10
0.00029237
5.45036e-10
0.00029237
5.62693e-10
0.00029237
5.60646e-10
0.00029237
5.95378e-10
0.00029237
6.09444e-10
0.00029237
6.36642e-10
0.00029237
6.60956e-10
0.00029237
7.01914e-10
0.00029237
7.46866e-10
0.00029237
7.75979e-10
0.00029237
7.99799e-10
0.00029237
8.07527e-10
0.00029237
7.88515e-10
0.00029237
7.55085e-10
0.00029237
7.15216e-10
0.00029237
6.70275e-10
0.00029237
6.191e-10
0.000292369
5.62335e-10
0.000292369
5.09585e-10
0.000292369
4.6627e-10
0.000292369
4.26338e-10
0.000292369
3.8697e-10
0.000292369
3.53139e-10
0.000292369
3.27022e-10
0.000292369
3.05173e-10
0.000292368
2.83608e-10
0.000292368
2.6156e-10
0.000292368
2.40277e-10
0.000292368
2.17995e-10
0.000292368
1.92697e-10
0.000292368
1.69007e-10
0.000292368
1.51325e-10
0.000292368
1.3632e-10
0.000292368
1.21023e-10
0.000292368
1.06682e-10
0.000292368
9.18871e-11
0.000292368
7.40939e-11
0.000292368
5.61609e-11
0.000292368
4.34247e-11
0.000292368
3.29389e-11
0.000292368
2.15066e-11
0.000292368
7.84804e-12
0.000292368
-2.98711e-12
0.000292368
-6.73206e-12
0.000292368
-6.40777e-12
0.000292368
-7.84411e-12
0.000292368
-1.34217e-11
0.000292368
-2.08212e-11
0.000292368
-2.53194e-11
0.000292368
-2.35049e-11
0.000292368
-1.66057e-11
0.000292368
-1.03715e-11
0.000292368
-9.74783e-12
0.000292368
-1.32605e-11
0.000292368
-1.56505e-11
0.000292368
-1.58365e-11
0.000292368
-1.71364e-11
0.000292368
-2.2469e-11
0.000292368
-2.96921e-11
0.000292368
-3.42256e-11
0.000292368
-3.46735e-11
0.000292368
-3.32153e-11
0.000292368
-3.36323e-11
0.000292368
-3.78107e-11
0.000292368
-4.46441e-11
0.000292368
-5.05385e-11
0.000292368
-5.28087e-11
0.000292368
-5.2919e-11
0.000292368
-5.49507e-11
0.000292368
-5.88201e-11
0.000292368
-5.92028e-11
0.000292368
-5.18806e-11
0.000292368
-3.86852e-11
0.000292368
-2.57191e-11
0.000292368
-1.75559e-11
0.000292368
-1.44419e-11
0.000292368
-1.39226e-11
0.000292368
-1.39087e-11
0.000292368
-1.49194e-11
0.000292368
-1.73619e-11
0.000292368
-2.26232e-11
0.000292368
-2.84137e-11
0.000292368
-2.93118e-11
0.000292368
-2.41285e-11
0.000292368
-1.73129e-11
0.000292368
-1.47196e-11
0.000292368
-1.72357e-11
0.000292368
-2.03747e-11
0.000292368
-1.87678e-11
0.000292368
-1.14936e-11
0.000292368
-2.94675e-12
0.000292368
2.17029e-12
0.000292368
3.24628e-12
0.000292368
3.83348e-12
0.000292368
6.65279e-12
0.000292368
1.00332e-11
0.000292368
9.88062e-12
0.000292368
4.93396e-12
0.000292368
-1.88206e-12
0.000292368
-6.86084e-12
0.000292368
-8.36147e-12
0.000292368
-7.58647e-12
0.000292368
-7.48501e-12
0.000292368
-9.57127e-12
0.000292368
-1.17006e-11
0.000292368
-1.11746e-11
0.000292368
-7.74782e-12
0.000292368
-3.41831e-12
0.000292368
-7.6886e-13
0.000292368
6.97342e-13
0.000292368
4.30333e-12
0.000292368
1.11303e-11
0.000292368
1.80567e-11
0.000292368
2.43824e-11
0.000292368
3.02045e-11
0.000292368
3.39328e-11
0.000292368
3.64097e-11
0.000292368
3.91976e-11
0.000292368
4.0943e-11
0.000292368
4.05524e-11
0.000292368
3.72424e-11
0.000292368
3.04252e-11
0.000292368
2.3806e-11
0.000292368
1.92306e-11
0.000292368
1.3077e-11
0.000292368
5.21492e-12
0.000292368
-3.14601e-12
0.000292368
-1.36766e-11
0.000292368
-2.34403e-11
0.000292368
-2.71682e-11
0.000292368
-2.98847e-11
0.000292368
-3.39908e-11
0.000292368
-3.3493e-11
0.000292368
-2.97509e-11
0.000292368
-2.47641e-11
0.000292368
-2.03246e-11
0.000292368
-2.24577e-11
0.000292368
-2.41255e-11
0.000292368
-1.41338e-11
0.000292368
2.27522e-12
0.000292368
1.21417e-11
0.000292368
1.46727e-11
0.000292368
1.52972e-11
0.000292368
1.18518e-11
0.000292368
4.13442e-12
0.000292368
4.41805e-12
-1.04289e-11
0.000321947
4.32326e-10
0.000321947
4.36382e-10
0.000321947
4.37717e-10
0.000321947
4.8784e-10
0.000321947
5.71793e-10
0.000321947
5.8085e-10
0.000321947
5.80906e-10
0.000321947
5.96933e-10
0.000321947
6.21035e-10
0.000321947
6.30305e-10
0.000321947
6.34467e-10
0.000321947
6.55579e-10
0.000321947
6.80583e-10
0.000321947
7.1043e-10
0.000321947
7.38666e-10
0.000321947
7.50485e-10
0.000321947
7.49852e-10
0.000321947
7.41759e-10
0.000321947
7.25552e-10
0.000321947
7.01139e-10
0.000321947
6.65963e-10
0.000321947
6.23063e-10
0.000321947
5.80998e-10
0.000321947
5.41103e-10
0.000321947
5.01356e-10
0.000321947
4.64792e-10
0.000321947
4.3189e-10
0.000321946
3.97706e-10
0.000321946
3.61086e-10
0.000321946
3.26971e-10
0.000321946
3.00794e-10
0.000321946
2.81782e-10
0.000321946
2.62364e-10
0.000321946
2.38398e-10
0.000321946
2.13204e-10
0.000321946
1.88301e-10
0.000321946
1.62451e-10
0.000321946
1.38511e-10
0.000321946
1.19524e-10
0.000321946
1.0281e-10
0.000321946
8.54102e-11
0.000321946
6.87962e-11
0.000321946
5.50101e-11
0.000321946
4.35481e-11
0.000321946
3.21417e-11
0.000321946
2.17325e-11
0.000321946
1.57881e-11
0.000321946
1.30683e-11
0.000321946
9.91053e-12
0.000321946
4.10107e-12
0.000321946
-3.43796e-12
0.000321946
-1.00397e-11
0.000321946
-1.34427e-11
0.000321946
-1.23084e-11
0.000321946
-7.96272e-12
0.000321946
-4.97847e-12
0.000321946
-6.11994e-12
0.000321946
-9.43486e-12
0.000321946
-1.03549e-11
0.000321946
-8.6269e-12
0.000321946
-8.55859e-12
0.000321946
-1.28522e-11
0.000321946
-1.94617e-11
0.000321946
-2.45474e-11
0.000321946
-2.62811e-11
0.000321946
-2.63492e-11
0.000321946
-2.88084e-11
0.000321946
-3.70499e-11
0.000321946
-4.93588e-11
0.000321946
-5.87781e-11
0.000321946
-5.98014e-11
0.000321946
-5.46969e-11
0.000321946
-4.99394e-11
0.000321946
-4.78292e-11
0.000321946
-4.49879e-11
0.000321946
-3.82505e-11
0.000321946
-2.93868e-11
0.000321946
-2.35522e-11
0.000321946
-2.44184e-11
0.000321946
-3.11264e-11
0.000321946
-3.93096e-11
0.000321946
-4.3108e-11
0.000321946
-4.12343e-11
0.000321946
-3.67293e-11
0.000321946
-3.40833e-11
0.000321946
-3.37905e-11
0.000321946
-3.2903e-11
0.000321946
-2.90739e-11
0.000321946
-2.3711e-11
0.000321946
-2.01547e-11
0.000321946
-1.99383e-11
0.000321946
-2.09054e-11
0.000321946
-1.89363e-11
0.000321946
-1.22413e-11
0.000321946
-3.35252e-12
0.000321946
3.20636e-12
0.000321946
5.83157e-12
0.000321946
6.9246e-12
0.000321946
9.00222e-12
0.000321946
1.14986e-11
0.000321946
1.19133e-11
0.000321946
9.30524e-12
0.000321946
4.48712e-12
0.000321946
-2.37832e-13
0.000321946
-2.50481e-12
0.000321946
-2.28851e-12
0.000321946
-2.82325e-12
0.000321946
-5.85755e-12
0.000321946
-9.15439e-12
0.000321946
-9.00832e-12
0.000321946
-3.90073e-12
0.000321946
2.62111e-12
0.000321946
7.08975e-12
0.000321946
9.67644e-12
0.000321946
1.3529e-11
0.000321946
2.00839e-11
0.000321946
2.86499e-11
0.000321946
3.70061e-11
0.000321946
4.07513e-11
0.000321946
3.93159e-11
0.000321946
3.71748e-11
0.000321946
3.62609e-11
0.000321946
3.63704e-11
0.000321946
3.67011e-11
0.000321946
3.33518e-11
0.000321946
2.65835e-11
0.000321946
2.10606e-11
0.000321946
1.62129e-11
0.000321946
8.93888e-12
0.000321946
1.74774e-12
0.000321946
-4.89033e-12
0.000321946
-1.10563e-11
0.000321946
-1.29055e-11
0.000321946
-1.37743e-11
0.000321946
-1.86867e-11
0.000321946
-1.98357e-11
0.000321946
-1.84096e-11
0.000321946
-2.13727e-11
0.000321946
-2.53835e-11
0.000321946
-2.87725e-11
0.000321946
-2.61558e-11
0.000321946
-1.32003e-11
0.000321946
-3.8635e-12
0.000321946
-1.22521e-11
0.000321946
-2.07441e-11
0.000321946
-1.57005e-11
0.000321946
-7.99539e-12
0.000321946
-1.0594e-12
0.000321946
-1.85486e-12
-1.2092e-11
0.000339576
3.91905e-10
0.000339576
4.24677e-10
0.000339576
4.62093e-10
0.000339576
4.6626e-10
0.000339576
4.90145e-10
0.000339576
5.37172e-10
0.000339576
5.54424e-10
0.000339576
5.62209e-10
0.000339576
5.54583e-10
0.000339576
5.54271e-10
0.000339576
5.56174e-10
0.000339576
5.6229e-10
0.000339576
5.72221e-10
0.000339576
5.88077e-10
0.000339577
6.12625e-10
0.000339577
6.39531e-10
0.000339577
6.66767e-10
0.000339577
6.88559e-10
0.000339577
6.93998e-10
0.000339577
6.83856e-10
0.000339577
6.64662e-10
0.000339577
6.3802e-10
0.000339577
6.0563e-10
0.000339577
5.71717e-10
0.000339577
5.38884e-10
0.000339577
5.0814e-10
0.000339577
4.78926e-10
0.000339577
4.47774e-10
0.000339577
4.12285e-10
0.000339577
3.74908e-10
0.000339577
3.42072e-10
0.000339577
3.18349e-10
0.000339576
2.98226e-10
0.000339576
2.72074e-10
0.000339576
2.40801e-10
0.000339576
2.12035e-10
0.000339576
1.86746e-10
0.000339576
1.62219e-10
0.000339576
1.3988e-10
0.000339576
1.21311e-10
0.000339576
1.04188e-10
0.000339576
8.6712e-11
0.000339576
7.03953e-11
0.000339576
5.6904e-11
0.000339576
4.50515e-11
0.000339576
3.33459e-11
0.000339576
2.31572e-11
0.000339576
1.59866e-11
0.000339576
1.0212e-11
0.000339576
4.23924e-12
0.000339576
-1.77903e-12
0.000339576
-6.57541e-12
0.000339576
-1.04171e-11
0.000339576
-1.27315e-11
0.000339576
-1.20129e-11
0.000339576
-8.43147e-12
0.000339576
-6.07457e-12
0.000339576
-8.05882e-12
0.000339576
-1.21662e-11
0.000339576
-1.48693e-11
0.000339576
-1.67413e-11
0.000339576
-2.06757e-11
0.000339576
-2.7433e-11
0.000339576
-3.53012e-11
0.000339576
-4.24509e-11
0.000339576
-4.77594e-11
0.000339576
-5.0755e-11
0.000339576
-5.28177e-11
0.000339576
-5.56992e-11
0.000339576
-5.80605e-11
0.000339576
-5.56273e-11
0.000339576
-4.6471e-11
0.000339576
-3.51692e-11
0.000339576
-2.80421e-11
0.000339576
-2.63969e-11
0.000339576
-2.68341e-11
0.000339576
-2.64431e-11
0.000339576
-2.56867e-11
0.000339576
-2.68956e-11
0.000339576
-3.11858e-11
0.000339576
-3.63509e-11
0.000339576
-3.91557e-11
0.000339576
-3.67681e-11
0.000339576
-3.01396e-11
0.000339576
-2.42718e-11
0.000339576
-2.34797e-11
0.000339576
-2.67447e-11
0.000339576
-2.93069e-11
0.000339576
-2.73378e-11
0.000339576
-2.09354e-11
0.000339576
-1.3157e-11
0.000339576
-6.63335e-12
0.000339576
-1.10154e-12
0.000339576
5.83203e-12
0.000339576
1.50378e-11
0.000339576
2.32388e-11
0.000339576
2.7316e-11
0.000339576
2.78346e-11
0.000339576
2.71123e-11
0.000339576
2.77207e-11
0.000339576
2.7551e-11
0.000339576
2.38041e-11
0.000339576
1.54841e-11
0.000339576
3.6755e-12
0.000339576
-8.0995e-12
0.000339576
-1.54564e-11
0.000339576
-1.79641e-11
0.000339576
-1.90823e-11
0.000339576
-2.0544e-11
0.000339576
-2.03451e-11
0.000339576
-1.53637e-11
0.000339576
-5.51425e-12
0.000339576
4.46085e-12
0.000339576
1.04392e-11
0.000339576
1.39656e-11
0.000339576
1.83155e-11
0.000339576
2.51619e-11
0.000339576
3.41055e-11
0.000339576
4.05049e-11
0.000339576
4.09694e-11
0.000339576
3.84687e-11
0.000339576
3.46058e-11
0.000339576
2.89771e-11
0.000339576
2.57405e-11
0.000339576
2.58372e-11
0.000339576
2.50325e-11
0.000339576
2.22246e-11
0.000339576
1.85663e-11
0.000339576
1.12677e-11
0.000339576
1.93427e-12
0.000339576
-5.37854e-12
0.000339576
-9.42619e-12
0.000339576
-8.41603e-12
0.000339576
-5.27397e-12
0.000339576
-8.87693e-12
0.000339576
-1.19054e-11
0.000339576
-9.84476e-12
0.000339576
-1.31875e-11
0.000339576
-1.97508e-11
0.000339576
-2.21916e-11
0.000339576
-2.14427e-11
0.000339576
-1.61856e-11
0.000339576
-1.29321e-11
0.000339576
-1.95953e-11
0.000339576
-2.53948e-11
0.000339576
-2.48686e-11
0.000339576
-2.22195e-11
0.000339576
-1.05019e-11
0.000339576
-5.48302e-12
-4.01065e-12
0.000345432
3.76809e-10
0.000345433
3.51406e-10
0.000345433
3.74605e-10
0.000345433
4.12775e-10
0.000345433
4.23181e-10
0.000345433
4.65204e-10
0.000345433
4.85108e-10
0.000345433
5.00193e-10
0.000345433
4.96245e-10
0.000345433
4.84501e-10
0.000345433
4.76588e-10
0.000345433
4.79508e-10
0.000345433
4.91037e-10
0.000345433
5.0128e-10
0.000345433
5.1431e-10
0.000345433
5.35947e-10
0.000345434
5.64272e-10
0.000345434
5.89674e-10
0.000345434
6.02335e-10
0.000345434
6.04379e-10
0.000345434
6.01112e-10
0.000345434
5.89581e-10
0.000345434
5.68306e-10
0.000345434
5.45778e-10
0.000345434
5.28514e-10
0.000345434
5.11974e-10
0.000345434
4.89784e-10
0.000345434
4.61552e-10
0.000345434
4.29123e-10
0.000345434
3.93072e-10
0.000345434
3.55978e-10
0.000345434
3.24168e-10
0.000345434
2.997e-10
0.000345434
2.75722e-10
0.000345434
2.47631e-10
0.000345434
2.20192e-10
0.000345434
1.97813e-10
0.000345434
1.78111e-10
0.000345434
1.58692e-10
0.000345434
1.40677e-10
0.000345434
1.23398e-10
0.000345434
1.04189e-10
0.000345434
8.39034e-11
0.000345434
6.69897e-11
0.000345434
5.54617e-11
0.000345434
4.65354e-11
0.000345434
3.71475e-11
0.000345434
2.75573e-11
0.000345434
1.92913e-11
0.000345434
1.30401e-11
0.000345434
9.03043e-12
0.000345434
7.5299e-12
0.000345434
7.16483e-12
0.000345434
6.05534e-12
0.000345434
5.27372e-12
0.000345434
7.67103e-12
0.000345434
1.14204e-11
0.000345434
9.76879e-12
0.000345434
-6.18014e-13
0.000345434
-1.54989e-11
0.000345434
-2.81273e-11
0.000345434
-3.61905e-11
0.000345434
-4.18093e-11
0.000345434
-4.77962e-11
0.000345434
-5.56262e-11
0.000345434
-6.40034e-11
0.000345434
-6.79156e-11
0.000345434
-6.43024e-11
0.000345434
-5.4733e-11
0.000345434
-4.39531e-11
0.000345434
-3.62264e-11
0.000345434
-3.0641e-11
0.000345434
-2.50895e-11
0.000345434
-2.07051e-11
0.000345434
-2.02845e-11
0.000345434
-2.40599e-11
0.000345434
-2.9477e-11
0.000345434
-3.28417e-11
0.000345434
-3.23323e-11
0.000345434
-2.91454e-11
0.000345434
-2.54077e-11
0.000345434
-2.31813e-11
0.000345434
-2.45676e-11
0.000345434
-2.70942e-11
0.000345434
-2.89366e-11
0.000345434
-3.03847e-11
0.000345434
-3.18958e-11
0.000345434
-3.22275e-11
0.000345434
-2.88811e-11
0.000345434
-2.05803e-11
0.000345434
-8.50425e-12
0.000345434
4.22553e-12
0.000345434
1.41426e-11
0.000345434
2.06471e-11
0.000345434
2.64926e-11
0.000345434
3.42653e-11
0.000345434
4.23016e-11
0.000345434
4.66176e-11
0.000345434
4.54978e-11
0.000345434
4.03181e-11
0.000345434
3.30905e-11
0.000345434
2.46726e-11
0.000345434
1.62182e-11
0.000345434
6.39347e-12
0.000345434
-6.43484e-12
0.000345434
-1.96722e-11
0.000345434
-2.75468e-11
0.000345434
-2.76734e-11
0.000345434
-2.24542e-11
0.000345434
-1.56008e-11
0.000345434
-9.26115e-12
0.000345434
-3.5759e-12
0.000345434
2.646e-12
0.000345434
8.86776e-12
0.000345434
1.56257e-11
0.000345434
2.19565e-11
0.000345434
2.65379e-11
0.000345434
3.14578e-11
0.000345434
3.68441e-11
0.000345434
3.84865e-11
0.000345434
3.64481e-11
0.000345434
3.25708e-11
0.000345434
2.52462e-11
0.000345434
1.89827e-11
0.000345434
2.06197e-11
0.000345434
2.50368e-11
0.000345434
2.28364e-11
0.000345434
1.38196e-11
0.000345434
3.80345e-12
0.000345434
-2.27714e-12
0.000345434
-2.76159e-12
0.000345434
-1.85176e-12
0.000345434
-1.95764e-12
0.000345434
-1.94885e-12
0.000345434
-5.40175e-12
0.000345434
-7.48879e-12
0.000345434
-1.80456e-12
0.000345434
-1.05067e-12
0.000345434
-8.37381e-12
0.000345434
-1.05243e-11
0.000345434
-8.14477e-12
0.000345434
-9.4199e-12
0.000345434
-1.64575e-11
0.000345434
-2.16338e-11
0.000345434
-2.34545e-11
0.000345434
-2.63593e-11
0.000345434
-2.71639e-11
0.000345434
-2.14861e-11
0.000345434
-1.58166e-11
1.22878e-12
0.000339576
3.75579e-10
0.000339576
3.43618e-10
0.000339576
3.17815e-10
0.000339576
3.18314e-10
0.000339576