/*--------------------------------*- C++ -*----------------------------------*\
| =========                 |                                                 |
| \\      /  F ield         | OpenFOAM: The Open Source CFD Toolbox           |
|  \\    /   O peration     | Version:  2406                                  |
|   \\  /    A nd           | Website:  www.openfoam.com                      |
|    \\/     M anipulation  |                                                 |
\*---------------------------------------------------------------------------*/
FoamFile
{
    version     2.0;
    format      ascii;
    arch        "LSB;label=32;scalar=64";
    class       surfaceScalarField;
    location    "1.25";
    object      alphaPhi0.air;
}
// * * * * * * * * * * * * * * * * * * * * * * * * * * * * * * * * * * * * * //

dimensions      [0 3 -1 0 0 0 0];

oriented        oriented;

internalField   nonuniform List<scalar> 
12225
(
0.510217
2.60406e-06
0.51021
6.70542e-06
0.510203
7.53418e-06
0.510198
4.91976e-06
0.510194
4.11612e-06
0.510189
4.67437e-06
0.510184
5.05366e-06
0.510179
5.5042e-06
0.510173
5.4304e-06
0.510167
5.96413e-06
0.510161
6.45164e-06
0.510154
6.50851e-06
0.510148
6.05472e-06
0.510143
5.45485e-06
0.510138
5.16027e-06
0.510132
5.28598e-06
0.510127
5.3722e-06
0.510122
5.06257e-06
0.510117
4.83812e-06
0.510112
4.81134e-06
0.510107
4.90367e-06
0.510102
5.07493e-06
0.510097
5.03063e-06
0.510092
4.9143e-06
0.510087
5.311e-06
0.510081
6.07471e-06
0.510074
6.48356e-06
0.510068
6.32154e-06
0.510062
5.85337e-06
0.510057
5.40936e-06
0.510052
5.11987e-06
0.510047
5.12658e-06
0.510041
5.39936e-06
0.510036
5.61589e-06
0.51003
5.80211e-06
0.510024
6.13822e-06
0.510017
6.50027e-06
0.510011
6.44943e-06
0.510005
5.9009e-06
0.509999
5.40977e-06
0.509994
5.14935e-06
0.509989
4.984e-06
0.509984
5.01635e-06
0.509979
5.17283e-06
0.509974
5.30835e-06
0.509968
5.43236e-06
0.509963
5.38985e-06
0.509958
5.08858e-06
0.509953
4.86072e-06
0.509948
5.02317e-06
0.509943
5.48583e-06
0.509937
5.80435e-06
0.509931
5.6979e-06
0.509926
5.32544e-06
0.509921
4.93569e-06
0.509916
4.80504e-06
0.509911
5.05369e-06
0.509905
5.42285e-06
0.5099
5.7144e-06
0.509894
5.84981e-06
0.509888
5.67036e-06
0.509883
5.29734e-06
0.509878
5.14383e-06
0.509872
5.33957e-06
0.509867
5.56327e-06
0.509861
5.56574e-06
0.509856
5.46854e-06
0.50985
5.45715e-06
0.509845
5.51931e-06
0.509839
5.53887e-06
0.509834
5.4641e-06
0.509829
5.28813e-06
0.509824
5.08311e-06
0.509818
5.05749e-06
0.509813
5.32278e-06
0.509808
5.56831e-06
0.509802
5.50543e-06
0.509797
5.41034e-06
0.509791
5.52864e-06
0.509785
5.63461e-06
0.50978
5.55328e-06
0.509775
5.29593e-06
0.50977
4.91699e-06
0.509765
4.64095e-06
0.50976
4.78464e-06
0.509755
5.35836e-06
0.509749
5.95084e-06
0.509743
6.13855e-06
0.509737
5.85648e-06
0.509732
5.41282e-06
0.509726
5.26189e-06
0.509721
5.53258e-06
0.509715
5.91698e-06
0.509709
6.06236e-06
0.509703
5.74556e-06
0.509698
5.07255e-06
0.509693
4.53074e-06
0.509689
4.47517e-06
0.509684
4.84326e-06
0.509679
5.40798e-06
0.509673
5.90441e-06
0.509667
6.0726e-06
0.509661
5.86177e-06
0.509655
5.52073e-06
0.50965
5.31566e-06
0.509645
5.27998e-06
0.509639
5.33881e-06
0.509634
5.35772e-06
0.509629
5.21051e-06
0.509624
4.99076e-06
0.509619
4.84532e-06
0.509614
4.81722e-06
0.509609
4.97186e-06
0.509604
5.27733e-06
0.509598
5.50896e-06
0.509593
5.52347e-06
0.509587
5.4517e-06
0.509582
5.4558e-06
0.509577
5.5077e-06
0.509571
5.58241e-06
0.509565
5.73548e-06
0.509559
5.82836e-06
0.509554
5.72307e-06
0.509548
5.54129e-06
0.509543
5.38951e-06
0.509537
5.25978e-06
0.509532
5.15921e-06
0.509527
5.03349e-06
0.509522
4.86866e-06
0.509518
4.8628e-06
0.509512
5.14943e-06
0.509507
5.57735e-06
0.509501
5.9112e-06
0.509495
5.9773e-06
0.509489
5.74742e-06
0.509484
5.43511e-06
0.509479
5.2331e-06
0.509473
5.10682e-06
0.509468
5.01472e-06
0.509463
4.97638e-06
0.509458
4.9937e-06
0.509453
5.12904e-06
0.509448
5.44128e-06
0.509442
5.76725e-06
0.509436
5.85247e-06
0.509431
5.69017e-06
0.509425
5.50912e-06
0.50942
5.49721e-06
0.509414
5.68037e-06
0.509408
5.92874e-06
0.509402
6.03092e-06
0.509396
5.85803e-06
0.509391
5.45533e-06
0.509386
5.05842e-06
0.509381
4.99196e-06
0.509375
5.32947e-06
0.509369
5.75824e-06
0.509363
5.95905e-06
0.509358
5.89266e-06
0.509352
5.65317e-06
0.509347
5.38353e-06
0.509341
5.31164e-06
0.509336
5.50826e-06
0.50933
5.74444e-06
0.509324
5.79575e-06
0.509319
5.63144e-06
0.509313
5.34037e-06
0.509308
5.13306e-06
0.509303
5.18148e-06
0.509298
5.35526e-06
0.509292
5.42311e-06
0.509287
5.38856e-06
0.509281
5.39298e-06
0.509276
5.49782e-06
0.50927
5.71442e-06
0.509264
5.98853e-06
0.509258
6.11832e-06
0.509252
5.97461e-06
0.509246
5.67569e-06
0.509241
5.41546e-06
0.509236
5.29907e-06
0.50923
5.34125e-06
0.509225
5.38931e-06
0.50922
5.24983e-06
0.509215
5.03007e-06
0.50921
5.04838e-06
0.509204
5.34534e-06
0.509199
5.64564e-06
0.509193
5.78473e-06
0.509187
5.8251e-06
0.509181
5.85877e-06
0.509175
5.87035e-06
0.50917
5.72706e-06
0.509164
5.37114e-06
0.509159
4.9622e-06
0.509154
4.72268e-06
0.50915
4.73916e-06
0.509145
4.91734e-06
0.50914
5.08107e-06
0.509135
5.07337e-06
0.50913
4.98288e-06
0.509125
4.99601e-06
0.50912
5.0833e-06
0.509114
5.19599e-06
0.509109
5.46984e-06
0.509103
5.82005e-06
0.509097
5.86257e-06
0.509092
5.51322e-06
0.509087
5.07417e-06
0.509082
4.77443e-06
0.509077
4.69395e-06
0.509072
4.86371e-06
0.509067
5.12494e-06
0.509062
5.19384e-06
0.509057
5.01059e-06
0.509052
4.77294e-06
0.509048
4.65961e-06
0.509043
4.73491e-06
0.509038
4.97943e-06
0.509033
5.27032e-06
0.509027
5.419e-06
0.509022
5.32663e-06
0.509017
5.15594e-06
0.509012
5.16566e-06
0.509006
5.33279e-06
0.509001
5.38891e-06
0.508996
5.25284e-06
0.50899
5.114e-06
0.508985
5.1353e-06
0.50898
5.34768e-06
0.508974
5.68635e-06
0.508968
5.95168e-06
0.508962
6.00735e-06
0.508956
5.95054e-06
0.50895
5.88671e-06
0.508945
5.80299e-06
0.508939
5.74946e-06
0.508933
5.78193e-06
0.508927
5.84594e-06
0.508921
5.93627e-06
0.508915
6.03653e-06
0.508909
5.94779e-06
0.508904
5.63353e-06
0.508898
5.4086e-06
0.508893
5.46717e-06
0.508887
5.69257e-06
0.508881
5.98901e-06
0.508875
6.17199e-06
0.508868
6.71814e-06
6.1106e-06
0.510223
-6.63554e-07
0.51023
1.68756e-07
0.510235
1.77854e-06
0.510238
2.3849e-06
0.51024
1.98005e-06
0.510243
1.75833e-06
0.510246
2.30364e-06
0.510248
2.85166e-06
0.510251
2.84462e-06
0.510254
2.44642e-06
0.510259
2.38626e-06
0.510263
2.27106e-06
0.510267
2.21303e-06
0.51027
2.39115e-06
0.510273
2.18714e-06
0.510276
1.98537e-06
0.510279
2.31099e-06
0.510281
2.79707e-06
0.510283
2.8189e-06
0.510285
2.74824e-06
0.510287
2.8559e-06
0.51029
2.78233e-06
0.510292
2.75409e-06
0.510294
2.67466e-06
0.510297
2.2085e-06
0.510301
1.96508e-06
0.510306
2.0523e-06
0.51031
2.12279e-06
0.510314
2.10426e-06
0.510317
2.15496e-06
0.51032
2.27858e-06
0.510323
2.32196e-06
0.510326
2.50833e-06
0.510329
2.69696e-06
0.510332
2.59396e-06
0.510335
2.58466e-06
0.510339
2.95281e-06
0.510342
3.16834e-06
0.510345
2.76623e-06
0.510348
2.32825e-06
0.510351
2.39996e-06
0.510354
2.46611e-06
0.510356
2.28867e-06
0.510359
2.3096e-06
0.510362
2.68794e-06
0.510364
3.14559e-06
0.510366
3.22834e-06
0.510369
2.84371e-06
0.510371
2.37009e-06
0.510374
1.96988e-06
0.510378
1.69734e-06
0.510382
1.75669e-06
0.510386
2.06589e-06
0.510388
2.34257e-06
0.510391
2.46462e-06
0.510393
2.46399e-06
0.510396
2.58509e-06
0.510398
2.83141e-06
0.510401
2.737e-06
0.510405
2.28603e-06
0.510409
1.91089e-06
0.510412
1.82611e-06
0.510415
2.10845e-06
0.510418
2.68547e-06
0.51042
3.1834e-06
0.510423
3.17415e-06
0.510425
2.72072e-06
0.510429
2.23662e-06
0.510432
1.98357e-06
0.510436
1.96007e-06
0.510439
2.20229e-06
0.510441
2.76455e-06
0.510443
3.27323e-06
0.510445
3.2069e-06
0.510448
2.67912e-06
0.510451
2.21371e-06
0.510455
2.021e-06
0.510458
2.15309e-06
0.510461
2.62582e-06
0.510463
3.07538e-06
0.510466
3.082e-06
0.510468
2.74957e-06
0.510471
2.49079e-06
0.510473
2.4519e-06
0.510475
2.48201e-06
0.510478
2.50452e-06
0.510482
2.48402e-06
0.510485
2.40576e-06
0.510489
2.41081e-06
0.510492
2.53312e-06
0.510494
2.71095e-06
0.510497
2.92222e-06
0.5105
3.00924e-06
0.510503
2.92813e-06
0.510506
2.77324e-06
0.510508
2.55338e-06
0.510511
2.32828e-06
0.510513
2.24435e-06
0.510515
2.24111e-06
0.510519
2.21884e-06
0.510522
2.26244e-06
0.510526
2.4469e-06
0.510529
2.65087e-06
0.510532
2.70849e-06
0.510535
2.66421e-06
0.510537
2.6222e-06
0.51054
2.61053e-06
0.510543
2.65988e-06
0.510545
2.69434e-06
0.510548
2.59378e-06
0.51055
2.40987e-06
0.510553
2.23104e-06
0.510555
2.11808e-06
0.510558
2.1705e-06
0.510562
2.37423e-06
0.510565
2.47866e-06
0.510568
2.32438e-06
0.510571
2.09095e-06
0.510575
1.95432e-06
0.510578
1.90394e-06
0.510582
2.03856e-06
0.510585
2.41627e-06
0.510588
2.78662e-06
0.510591
2.92926e-06
0.510594
2.8526e-06
0.510596
2.65181e-06
0.510599
2.51309e-06
0.510601
2.55081e-06
0.510604
2.60223e-06
0.510606
2.49107e-06
0.510609
2.27316e-06
0.510612
2.07482e-06
0.510616
2.02403e-06
0.51062
2.21661e-06
0.510623
2.52463e-06
0.510626
2.76782e-06
0.510628
2.92206e-06
0.51063
2.94315e-06
0.510633
2.7758e-06
0.510635
2.52879e-06
0.510638
2.32341e-06
0.510641
2.16012e-06
0.510644
2.11959e-06
0.510647
2.33396e-06
0.510651
2.67825e-06
0.510653
2.88881e-06
0.510656
2.89259e-06
0.510659
2.75624e-06
0.510662
2.56708e-06
0.510665
2.4441e-06
0.510669
2.46231e-06
0.510672
2.59473e-06
0.510675
2.72579e-06
0.510677
2.69063e-06
0.51068
2.49645e-06
0.510683
2.38141e-06
0.510686
2.45877e-06
0.510689
2.58682e-06
0.510693
2.67442e-06
0.510696
2.70793e-06
0.510698
2.59125e-06
0.510701
2.34274e-06
0.510705
2.21399e-06
0.510708
2.34236e-06
0.510711
2.58612e-06
0.510714
2.7713e-06
0.510717
2.75987e-06
0.510719
2.49529e-06
0.510722
2.23273e-06
0.510725
2.27484e-06
0.510728
2.54998e-06
0.510731
2.78107e-06
0.510733
2.84281e-06
0.510736
2.69041e-06
0.51074
2.36075e-06
0.510743
2.12912e-06
0.510747
2.22392e-06
0.510751
2.5177e-06
0.510754
2.73997e-06
0.510756
2.75904e-06
0.510759
2.6065e-06
0.510762
2.46412e-06
0.510765
2.57073e-06
0.510767
2.83242e-06
0.510769
2.85952e-06
0.510772
2.55259e-06
0.510775
2.24599e-06
0.510778
2.15652e-06
0.510782
2.18471e-06
0.510786
2.18734e-06
0.510789
2.16688e-06
0.510793
2.24792e-06
0.510796
2.50422e-06
0.510799
2.81343e-06
0.510801
3.00856e-06
0.510802
3.00986e-06
0.510804
2.82842e-06
0.510807
2.6042e-06
0.510809
2.4989e-06
0.510812
2.46853e-06
0.510814
2.38345e-06
0.510817
2.35013e-06
0.51082
2.4173e-06
0.510823
2.32003e-06
0.510826
2.04849e-06
0.51083
2.01949e-06
0.510833
2.34121e-06
0.510836
2.64979e-06
0.510839
2.76024e-06
0.510841
2.70346e-06
0.510843
2.46606e-06
0.510845
2.17498e-06
0.510849
2.1192e-06
0.510851
2.39262e-06
0.510854
2.7561e-06
0.510855
2.96823e-06
0.510857
2.94764e-06
0.510859
2.71013e-06
0.510862
2.36837e-06
0.510865
2.15705e-06
0.510868
2.25082e-06
0.510871
2.48208e-06
0.510873
2.50881e-06
0.510876
2.33072e-06
0.510879
2.27158e-06
0.510882
2.43705e-06
0.510885
2.6211e-06
0.510887
2.66809e-06
0.51089
2.57559e-06
0.510893
2.39965e-06
0.510896
2.29336e-06
0.5109
2.3686e-06
0.510903
2.50601e-06
0.510907
2.5851e-06
0.51091
2.67088e-06
0.510913
2.75808e-06
0.510916
2.733e-06
0.510919
2.62348e-06
0.510923
2.49125e-06
0.510926
2.35063e-06
0.51093
2.38152e-06
0.510933
2.63669e-06
0.510936
2.77638e-06
0.510939
2.65022e-06
0.510942
2.48216e-06
0.510945
2.40809e-06
0.510949
2.42503e-06
0.510952
2.5047e-06
0.510956
2.56317e-06
2.82682e-06
0.510223
-1.33268e-08
0.510222
5.78054e-07
0.510222
1.75587e-06
0.510222
2.51845e-06
0.510221
2.72163e-06
0.510221
2.55316e-06
0.510221
1.70036e-06
0.510223
1.4416e-06
0.510223
1.99746e-06
0.510224
2.03967e-06
0.510224
2.195e-06
0.510224
2.61902e-06
0.510224
2.24809e-06
0.510224
1.81821e-06
0.510224
1.92873e-06
0.510225
1.70324e-06
0.510226
1.18996e-06
0.510227
1.22483e-06
0.510228
1.88521e-06
0.510229
2.41496e-06
0.510229
2.29975e-06
0.51023
2.45927e-06
0.510229
3.09743e-06
0.510229
3.32253e-06
0.510228
2.8268e-06
0.510228
2.15265e-06
0.510228
2.02183e-06
0.510228
2.4024e-06
0.510227
2.6321e-06
0.510227
2.66772e-06
0.510226
2.68714e-06
0.510226
2.38521e-06
0.510226
2.10222e-06
0.510227
2.42109e-06
0.510227
2.55437e-06
0.510228
1.79995e-06
0.510229
1.13494e-06
0.510231
1.5536e-06
0.510231
2.49044e-06
0.510231
2.84529e-06
0.510231
2.61269e-06
0.510231
2.45405e-06
0.51023
2.40428e-06
0.51023
2.24287e-06
0.510231
1.99033e-06
0.510233
1.74692e-06
0.510234
1.90704e-06
0.510234
2.44895e-06
0.510234
2.83533e-06
0.510233
2.85951e-06
0.510232
2.61869e-06
0.510232
2.15497e-06
0.510232
1.76109e-06
0.510233
1.71551e-06
0.510233
1.9275e-06
0.510233
2.15813e-06
0.510234
2.26353e-06
0.510234
2.19766e-06
0.510235
1.92338e-06
0.510236
1.67264e-06
0.510236
1.7509e-06
0.510236
2.07816e-06
0.510235
2.40002e-06
0.510235
2.63262e-06
0.510236
2.80235e-06
0.510236
2.83822e-06
0.510236
2.56553e-06
0.510236
2.08865e-06
0.510237
1.8642e-06
0.510237
2.04916e-06
0.510236
2.33309e-06
0.510237
2.58229e-06
0.510237
2.77022e-06
0.510238
2.63663e-06
0.510238
2.22122e-06
0.510238
1.94498e-06
0.510238
1.89106e-06
0.510239
1.91686e-06
0.510239
2.07613e-06
0.51024
2.26185e-06
0.510241
2.21212e-06
0.510242
1.9217e-06
0.510243
1.66109e-06
0.510243
1.71275e-06
0.510244
1.98338e-06
0.510244
2.18148e-06
0.510244
2.21061e-06
0.510245
2.0966e-06
0.510245
1.95127e-06
0.510246
1.93924e-06
0.510246
2.11322e-06
0.510247
2.42319e-06
0.510247
2.68438e-06
0.510247
2.72042e-06
0.510248
2.51089e-06
0.510248
2.13003e-06
0.510249
1.81544e-06
0.510249
1.81488e-06
0.510249
2.12988e-06
0.510249
2.4862e-06
0.510249
2.63429e-06
0.510248
2.63533e-06
0.510248
2.69581e-06
0.510248
2.78392e-06
0.510248
2.79823e-06
0.510248
2.71761e-06
0.510248
2.4746e-06
0.510249
2.13835e-06
0.510249
1.92606e-06
0.51025
1.92085e-06
0.51025
2.09063e-06
0.51025
2.34046e-06
0.51025
2.4893e-06
0.51025
2.47548e-06
0.51025
2.45436e-06
0.51025
2.47394e-06
0.51025
2.37861e-06
0.510249
2.21095e-06
0.510249
2.1631e-06
0.510249
2.17473e-06
0.510249
2.17954e-06
0.510249
2.29402e-06
0.510249
2.47913e-06
0.51025
2.58978e-06
0.51025
2.59581e-06
0.51025
2.4701e-06
0.51025
2.26385e-06
0.510251
2.16317e-06
0.510251
2.20533e-06
0.510251
2.274e-06
0.510251
2.34203e-06
0.510251
2.39789e-06
0.51025
2.39947e-06
0.51025
2.4128e-06
0.51025
2.44908e-06
0.510251
2.41284e-06
0.510251
2.3565e-06
0.510252
2.3572e-06
0.510252
2.33873e-06
0.510253
2.28089e-06
0.510253
2.22882e-06
0.510253
2.11528e-06
0.510253
1.9236e-06
0.510253
1.86381e-06
0.510254
2.06731e-06
0.510254
2.37123e-06
0.510255
2.58447e-06
0.510255
2.63822e-06
0.510255
2.52237e-06
0.510255
2.29601e-06
0.510255
2.06894e-06
0.510256
1.95342e-06
0.510257
1.99664e-06
0.510257
2.05349e-06
0.510258
1.94065e-06
0.510259
1.74944e-06
0.510259
1.71864e-06
0.51026
1.85617e-06
0.510261
2.05748e-06
0.510261
2.29946e-06
0.510261
2.47786e-06
0.510261
2.39495e-06
0.510261
2.08557e-06
0.510262
1.82878e-06
0.510263
1.82507e-06
0.510263
2.07463e-06
0.510264
2.42369e-06
0.510264
2.55482e-06
0.510263
2.3517e-06
0.510264
2.09771e-06
0.510264
2.08433e-06
0.510265
2.27659e-06
0.510265
2.53645e-06
0.510265
2.74463e-06
0.510265
2.67788e-06
0.510264
2.29113e-06
0.510265
1.89286e-06
0.510266
1.75623e-06
0.510266
1.89606e-06
0.510267
2.18242e-06
0.510267
2.38108e-06
0.510267
2.27997e-06
0.510268
2.05413e-06
0.510269
2.06119e-06
0.510269
2.27582e-06
0.510269
2.38075e-06
0.510269
2.28997e-06
0.510269
2.14563e-06
0.510269
2.06543e-06
0.51027
2.07153e-06
0.51027
2.10652e-06
0.51027
2.12061e-06
0.51027
2.12977e-06
0.510271
2.13764e-06
0.510272
2.15104e-06
0.510272
2.21448e-06
0.510273
2.31623e-06
0.510273
2.40484e-06
0.510273
2.50382e-06
0.510273
2.5774e-06
0.510273
2.46354e-06
0.510273
2.26805e-06
0.510273
2.31742e-06
0.510273
2.52874e-06
0.510272
2.52691e-06
0.510272
2.34308e-06
0.510272
2.26766e-06
0.510273
2.31486e-06
0.510273
2.41067e-06
0.510273
2.61268e-06
0.510273
2.83269e-06
0.510272
2.84149e-06
0.510271
2.63084e-06
0.510271
2.41139e-06
0.510272
2.2996e-06
0.510273
2.3048e-06
0.510273
2.43772e-06
0.510273
2.62918e-06
0.510273
2.69432e-06
0.510272
2.55221e-06
0.510272
2.38069e-06
0.510272
2.3734e-06
0.510272
2.42353e-06
0.510273
2.3089e-06
0.510273
2.08209e-06
0.510273
1.95054e-06
0.510274
1.96445e-06
0.510274
2.08381e-06
0.510275
2.26509e-06
0.510275
2.37065e-06
0.510275
2.33588e-06
0.510275
2.30012e-06
0.510275
2.31809e-06
0.510275
2.2919e-06
0.510276
2.25157e-06
0.510276
2.27865e-06
0.510277
2.323e-06
0.510277
2.36996e-06
0.510277
2.41854e-06
0.510277
2.31207e-06
0.510277
2.07567e-06
0.510278
2.01676e-06
0.510278
2.15657e-06
0.510279
2.23814e-06
0.510279
2.22142e-06
0.510279
2.19112e-06
0.51028
2.15534e-06
0.51028
2.15098e-06
0.51028
2.15442e-06
2.19963e-06
0.51022
4.32225e-07
0.510221
4.04569e-08
0.510222
1.47451e-07
0.510224
9.83178e-07
0.510225
1.2207e-06
0.510227
1.29288e-06
0.510226
1.90136e-06
0.510226
2.21124e-06
0.510225
2.16161e-06
0.510225
2.20007e-06
0.510226
1.79159e-06
0.510227
1.54838e-06
0.510227
2.06589e-06
0.510226
2.29371e-06
0.510226
2.27051e-06
0.510225
2.58176e-06
0.510224
2.4311e-06
0.510223
2.01606e-06
0.510223
1.83417e-06
0.510224
2.01888e-06
0.510224
2.20514e-06
0.510224
1.87308e-06
0.510226
1.46723e-06
0.510228
1.58458e-06
0.510229
2.01771e-06
0.510228
2.21903e-06
0.510228
2.23625e-06
0.510229
2.08301e-06
0.510229
1.7622e-06
0.510231
1.55332e-06
0.510232
1.62632e-06
0.510232
1.78635e-06
0.510232
1.82332e-06
0.510233
1.98604e-06
0.510233
2.28733e-06
0.510233
2.24178e-06
0.510232
1.82885e-06
0.510232
1.64223e-06
0.510233
1.74113e-06
0.510234
1.72607e-06
0.510235
1.65777e-06
0.510235
1.90092e-06
0.510235
2.38126e-06
0.510235
2.59796e-06
0.510235
2.42541e-06
0.510234
2.0522e-06
0.510235
1.64601e-06
0.510235
1.55382e-06
0.510236
1.84769e-06
0.510237
2.21758e-06
0.510237
2.53249e-06
0.510237
2.59825e-06
0.510236
2.31124e-06
0.510236
2.04024e-06
0.510236
2.13276e-06
0.510235
2.43155e-06
0.510235
2.59165e-06
0.510235
2.46815e-06
0.510235
1.94675e-06
0.510235
1.23655e-06
0.510236
9.73569e-07
0.510237
1.42204e-06
0.510237
2.12145e-06
0.510237
2.56015e-06
0.510237
2.49834e-06
0.510238
2.10681e-06
0.510239
1.70106e-06
0.51024
1.40891e-06
0.51024
1.4546e-06
0.51024
2.03784e-06
0.51024
2.7314e-06
0.510239
2.96664e-06
0.510239
2.76606e-06
0.51024
2.26538e-06
0.51024
1.63829e-06
0.510241
1.47271e-06
0.510241
1.92294e-06
0.51024
2.37352e-06
0.51024
2.48121e-06
0.51024
2.33918e-06
0.51024
2.06277e-06
0.51024
1.8185e-06
0.51024
1.72888e-06
0.51024
1.84922e-06
0.51024
2.11783e-06
0.510239
2.26986e-06
0.510239
2.1604e-06
0.51024
1.94146e-06
0.51024
1.85459e-06
0.51024
1.99215e-06
0.51024
2.22046e-06
0.51024
2.34461e-06
0.51024
2.22008e-06
0.510241
1.90939e-06
0.510242
1.69121e-06
0.510242
1.66606e-06
0.510242
1.71074e-06
0.510242
1.76108e-06
0.510243
1.81929e-06
0.510243
1.88775e-06
0.510244
1.93059e-06
0.510245
1.96596e-06
0.510245
2.13025e-06
0.510246
2.4013e-06
0.510246
2.57187e-06
0.510246
2.53487e-06
0.510246
2.28665e-06
0.510246
1.89061e-06
0.510247
1.55074e-06
0.510247
1.44906e-06
0.510248
1.62885e-06
0.510248
2.01683e-06
0.510248
2.38432e-06
0.510248
2.45694e-06
0.510248
2.24631e-06
0.510249
2.00101e-06
0.510249
1.78454e-06
0.51025
1.60408e-06
0.510251
1.66541e-06
0.510251
1.95673e-06
0.510251
2.19753e-06
0.510251
2.31211e-06
0.510251
2.33303e-06
0.510251
2.24154e-06
0.510252
2.12761e-06
0.510252
2.03581e-06
0.510253
1.90839e-06
0.510253
1.80838e-06
0.510253
1.7966e-06
0.510254
1.78791e-06
0.510254
1.75757e-06
0.510255
1.76538e-06
0.510256
1.80915e-06
0.510256
1.92334e-06
0.510256
2.12343e-06
0.510257
2.24041e-06
0.510257
2.16454e-06
0.510257
1.98344e-06
0.510258
1.75807e-06
0.510258
1.55782e-06
0.510259
1.56287e-06
0.510259
1.79296e-06
0.510259
2.01821e-06
0.510259
2.11035e-06
0.510259
2.17017e-06
0.510259
2.25494e-06
0.510259
2.32686e-06
0.51026
2.39002e-06
0.51026
2.44446e-06
0.51026
2.44483e-06
0.510259
2.34761e-06
0.510259
2.17753e-06
0.510259
2.08947e-06
0.510259
2.18293e-06
0.510258
2.27289e-06
0.510258
2.16932e-06
0.510258
1.96369e-06
0.510258
1.80029e-06
0.510258
1.68615e-06
0.510259
1.68823e-06
0.510259
1.89822e-06
0.51026
2.15969e-06
0.51026
2.21628e-06
0.510259
1.99096e-06
0.51026
1.61082e-06
0.51026
1.32663e-06
0.510261
1.42095e-06
0.510262
1.83357e-06
0.510262
2.16304e-06
0.510262
2.17741e-06
0.510262
1.99907e-06
0.510263
1.78918e-06
0.510264
1.65728e-06
0.510265
1.76064e-06
0.510265
2.0395e-06
0.510265
2.21512e-06
0.510265
2.1773e-06
0.510265
2.03539e-06
0.510265
1.90772e-06
0.510265
1.92512e-06
0.510265
2.14068e-06
0.510265
2.32005e-06
0.510265
2.24031e-06
0.510265
2.05419e-06
0.510265
1.99621e-06
0.510266
2.031e-06
0.510266
2.04969e-06
0.510266
2.0475e-06
0.510266
2.0542e-06
0.510266
2.09779e-06
0.510266
2.1671e-06
0.510266
2.22242e-06
0.510266
2.28269e-06
0.510265
2.35378e-06
0.510265
2.36078e-06
0.510265
2.27462e-06
0.510265
2.1264e-06
0.510266
1.93102e-06
0.510267
1.80911e-06
0.510267
1.91826e-06
0.510268
2.08635e-06
0.510268
2.04013e-06
0.510268
1.93229e-06
0.510269
2.00126e-06
0.510269
2.0724e-06
0.51027
1.97732e-06
0.51027
1.88522e-06
0.51027
1.88405e-06
0.510271
1.8657e-06
0.510272
1.87111e-06
0.510272
2.02433e-06
0.510273
2.24585e-06
0.510273
2.38287e-06
0.510273
2.41632e-06
0.510273
2.37445e-06
0.510273
2.26354e-06
0.510274
2.14879e-06
0.510274
2.13421e-06
0.510275
2.20496e-06
0.510275
2.20389e-06
0.510275
2.06764e-06
0.510276
1.96492e-06
0.510276
2.02464e-06
0.510276
2.10838e-06
0.510276
2.08449e-06
0.510276
2.00807e-06
0.510276
1.91372e-06
0.510276
1.79585e-06
0.510277
1.75944e-06
0.510277
1.8449e-06
0.510278
1.92446e-06
0.510278
1.9595e-06
0.510279
2.01442e-06
0.510279
2.04731e-06
0.510279
2.02166e-06
0.510279
2.00269e-06
0.51028
1.97513e-06
0.51028
1.91981e-06
0.510281
1.97015e-06
0.510281
2.08427e-06
0.510281
2.02614e-06
0.510281
1.87817e-06
0.510281
1.86908e-06
0.510282
1.92598e-06
0.510282
1.93862e-06
0.510282
1.95818e-06
0.510282
1.96735e-06
0.510282
1.93733e-06
0.510283
1.9029e-06
1.91741e-06
0.510223
2.28881e-07
0.510222
8.89269e-07
0.510221
5.4765e-07
0.510222
7.4092e-07
0.510221
1.48336e-06
0.510221
1.23941e-06
0.510222
1.48728e-06
0.510223
1.42225e-06
0.510224
1.2219e-06
0.510224
1.37548e-06
0.510224
1.84484e-06
0.510224
2.03458e-06
0.510224
1.69463e-06
0.510225
1.70936e-06
0.510225
1.8614e-06
0.510226
1.97133e-06
0.510226
1.96868e-06
0.510227
1.719e-06
0.510227
1.62382e-06
0.510227
1.57814e-06
0.510228
1.28625e-06
0.510229
1.32774e-06
0.510229
1.63581e-06
0.510229
1.52852e-06
0.510229
1.25339e-06
0.51023
1.24539e-06
0.510231
1.62214e-06
0.510231
2.16317e-06
0.51023
2.19507e-06
0.51023
1.78754e-06
0.51023
1.89115e-06
0.510229
2.5154e-06
0.510229
2.37973e-06
0.510229
1.44448e-06
0.51023
1.25611e-06
0.51023
2.19765e-06
0.510229
2.85452e-06
0.510228
2.5148e-06
0.510228
1.7406e-06
0.510229
1.4494e-06
0.510228
1.86362e-06
0.510228
2.17336e-06
0.510229
1.92614e-06
0.51023
1.56861e-06
0.510231
1.42438e-06
0.510231
1.58444e-06
0.510231
1.75178e-06
0.510231
1.65783e-06
0.510231
1.51753e-06
0.510232
1.49025e-06
0.510233
1.46833e-06
0.510234
1.33738e-06
0.510235
1.19516e-06
0.510236
1.28652e-06
0.510237
1.65917e-06
0.510237
2.02041e-06
0.510238
2.02172e-06
0.510238
1.79013e-06
0.510239
1.67093e-06
0.510238
1.61453e-06
0.510238
1.6574e-06
0.510237
1.96142e-06
0.510237
2.28012e-06
0.510237
2.30219e-06
0.510238
1.89644e-06
0.510239
1.18802e-06
0.51024
6.93233e-07
0.51024
7.37341e-07
0.510241
1.18845e-06
0.510241
1.91356e-06
0.510241
2.57208e-06
0.510241
2.59846e-06
0.510242
2.07637e-06
0.510243
1.54263e-06
0.510243
1.17429e-06
0.510243
1.17498e-06
0.510244
1.73863e-06
0.510244
2.32723e-06
0.510244
2.34754e-06
0.510244
1.9613e-06
0.510245
1.61114e-06
0.510245
1.56976e-06
0.510245
1.80934e-06
0.510245
2.03153e-06
0.510245
2.06048e-06
0.510245
1.95315e-06
0.510245
1.80099e-06
0.510245
1.71229e-06
0.510246
1.81809e-06
0.510245
2.06679e-06
0.510245
2.23928e-06
0.510246
2.25937e-06
0.510246
2.11588e-06
0.510246
1.78211e-06
0.510246
1.46198e-06
0.510246
1.35299e-06
0.510247
1.37948e-06
0.510247
1.45998e-06
0.510247
1.59357e-06
0.510247
1.78121e-06
0.510247
1.99e-06
0.510247
2.10614e-06
0.510247
2.10671e-06
0.510247
2.09144e-06
0.510248
2.06904e-06
0.510248
2.00178e-06
0.510249
1.89098e-06
0.510249
1.72146e-06
0.510249
1.52259e-06
0.510249
1.39683e-06
0.510249
1.41962e-06
0.51025
1.62375e-06
0.51025
1.95102e-06
0.51025
2.15537e-06
0.510251
2.0406e-06
0.510251
1.78116e-06
0.510251
1.58446e-06
0.510251
1.41573e-06
0.510252
1.37251e-06
0.510252
1.58312e-06
0.510252
1.8486e-06
0.510253
1.9925e-06
0.510253
2.01567e-06
0.510253
1.89601e-06
0.510254
1.73751e-06
0.510254
1.68185e-06
0.510254
1.64986e-06
0.510254
1.58118e-06
0.510255
1.55741e-06
0.510255
1.58224e-06
0.510255
1.63888e-06
0.510255
1.77697e-06
0.510255
1.93737e-06
0.510255
2.02837e-06
0.510255
2.08564e-06
0.510255
2.08852e-06
0.510255
1.96645e-06
0.510255
1.82391e-06
0.510255
1.74434e-06
0.510255
1.63365e-06
0.510255
1.50985e-06
0.510256
1.52016e-06
0.510256
1.65621e-06
0.510256
1.80776e-06
0.510256
1.97773e-06
0.510257
2.17295e-06
0.510257
2.29166e-06
0.510257
2.25399e-06
0.510257
2.08376e-06
0.510258
1.8925e-06
0.510258
1.78472e-06
0.510259
1.71565e-06
0.510259
1.63597e-06
0.51026
1.64409e-06
0.51026
1.74803e-06
0.510261
1.79899e-06
0.510261
1.79428e-06
0.510261
1.83218e-06
0.51026
1.86092e-06
0.51026
1.7991e-06
0.510261
1.72052e-06
0.510261
1.71648e-06
0.510261
1.78693e-06
0.510262
1.90162e-06
0.510261
1.95264e-06
0.510261
1.80847e-06
0.510261
1.57823e-06
0.510261
1.52809e-06
0.510261
1.69755e-06
0.510262
1.92238e-06
0.510261
2.09294e-06
0.510261
2.13859e-06
0.510261
1.97688e-06
0.510261
1.7153e-06
0.510261
1.5719e-06
0.510262
1.57375e-06
0.510263
1.61695e-06
0.510263
1.66346e-06
0.510263
1.66824e-06
0.510263
1.61967e-06
0.510264
1.67102e-06
0.510264
1.85418e-06
0.510265
1.92994e-06
0.510265
1.80127e-06
0.510265
1.64947e-06
0.510266
1.57992e-06
0.510266
1.5453e-06
0.510267
1.5186e-06
0.510267
1.50347e-06
0.510268
1.52947e-06
0.510268
1.62225e-06
0.510269
1.72538e-06
0.510269
1.79159e-06
0.51027
1.85385e-06
0.51027
1.9126e-06
0.510271
1.9643e-06
0.510271
2.04003e-06
0.510271
2.0499e-06
0.510271
1.90772e-06
0.510271
1.80247e-06
0.510271
1.86136e-06
0.510271
1.85202e-06
0.510271
1.69276e-06
0.510272
1.66607e-06
0.510272
1.83771e-06
0.510272
1.9608e-06
0.510272
1.97529e-06
0.510272
1.97899e-06
0.510272
1.9249e-06
0.510272
1.77418e-06
0.510272
1.66591e-06
0.510273
1.69979e-06
0.510273
1.80665e-06
0.510274
1.90769e-06
0.510274
1.97914e-06
0.510274
1.96442e-06
0.510275
1.83787e-06
0.510275
1.71793e-06
0.510276
1.74365e-06
0.510276
1.85382e-06
0.510276
1.85465e-06
0.510276
1.72116e-06
0.510277
1.62653e-06
0.510277
1.62965e-06
0.510278
1.63968e-06
0.510278
1.65542e-06
0.510278
1.71267e-06
0.510278
1.74375e-06
0.510278
1.73468e-06
0.510278
1.76511e-06
0.510279
1.81913e-06
0.510279
1.85938e-06
0.510279
1.93969e-06
0.510279
2.02611e-06
0.510279
2.02008e-06
0.510279
1.98255e-06
0.510279
1.96551e-06
0.510279
1.88247e-06
0.510279
1.80208e-06
0.510279
1.84956e-06
0.510279
1.88035e-06
0.510279
1.78044e-06
0.51028
1.6995e-06
0.51028
1.71218e-06
0.51028
1.71799e-06
0.51028
1.71039e-06
0.510281
1.71737e-06
0.510281
1.71956e-06
0.510281
1.72453e-06
1.70361e-06
0.510222
-3.05234e-07
0.510224
-2.36365e-07
0.510224
4.1212e-07
0.510224
9.12309e-07
0.510224
1.20167e-06
0.510223
1.71774e-06
0.510223
1.44255e-06
0.510224
1.1864e-06
0.510223
1.43454e-06
0.510223
1.5772e-06
0.510224
1.04288e-06
0.510225
6.2137e-07
0.510226
1.00453e-06
0.510226
1.33653e-06
0.510227
1.09707e-06
0.510228
1.0665e-06
0.510229
1.59682e-06
0.510228
1.91555e-06
0.510228
1.56964e-06
0.510228
1.66845e-06
0.510227
2.22586e-06
0.510227
2.15148e-06
0.510226
1.74988e-06
0.510226
1.66207e-06
0.510225
2.07654e-06
0.510224
2.32164e-06
0.510224
1.91462e-06
0.510225
1.32301e-06
0.510226
1.29347e-06
0.510226
1.73297e-06
0.510226
1.79005e-06
0.510227
1.33203e-06
0.510229
8.16e-07
0.51023
6.61109e-07
0.51023
1.03641e-06
0.51023
1.62525e-06
0.510232
1.53853e-06
0.510233
1.06163e-06
0.510234
1.13558e-06
0.510234
1.57591e-06
0.510234
1.75214e-06
0.510234
1.50156e-06
0.510235
1.15693e-06
0.510235
1.25669e-06
0.510235
1.67992e-06
0.510235
1.86311e-06
0.510235
1.83554e-06
0.510235
1.86563e-06
0.510234
1.94705e-06
0.510234
1.87906e-06
0.510234
1.6228e-06
0.510234
1.39093e-06
0.510233
1.2888e-06
0.510233
1.3659e-06
0.510233
1.64385e-06
0.510233
1.96366e-06
0.510234
1.96709e-06
0.510234
1.53558e-06
0.510234
1.16385e-06
0.510235
1.12889e-06
0.510235
1.28446e-06
0.510235
1.62948e-06
0.510236
1.95945e-06
0.510236
1.95033e-06
0.510236
1.63353e-06
0.510236
1.17512e-06
0.510236
9.28483e-07
0.510236
1.26274e-06
0.510235
1.94961e-06
0.510234
2.53503e-06
0.510234
2.72439e-06
0.510235
2.19072e-06
0.510235
1.1752e-06
0.510236
5.89234e-07
0.510237
7.46463e-07
0.510237
1.20068e-06
0.510237
1.6798e-06
0.510237
1.9869e-06
0.510238
1.85595e-06
0.510238
1.43027e-06
0.510239
1.10746e-06
0.510239
1.08708e-06
0.51024
1.33462e-06
0.51024
1.60637e-06
0.510241
1.62213e-06
0.510241
1.40383e-06
0.510242
1.20473e-06
0.510242
1.18056e-06
0.510243
1.39343e-06
0.510243
1.77102e-06
0.510243
2.01863e-06
0.510243
1.98066e-06
0.510244
1.76307e-06
0.510244
1.44537e-06
0.510244
1.16575e-06
0.510245
1.12729e-06
0.510245
1.30055e-06
0.510245
1.48207e-06
0.510245
1.55568e-06
0.510245
1.55862e-06
0.510245
1.60795e-06
0.510246
1.7636e-06
0.510246
1.97665e-06
0.510246
2.13107e-06
0.510246
2.09009e-06
0.510246
1.81028e-06
0.510246
1.42017e-06
0.510247
1.15156e-06
0.510247
1.16528e-06
0.510247
1.4309e-06
0.510247
1.73333e-06
0.510247
1.87124e-06
0.510247
1.84358e-06
0.510247
1.72831e-06
0.510248
1.51067e-06
0.510248
1.30116e-06
0.510249
1.31371e-06
0.510249
1.44928e-06
0.510248
1.53534e-06
0.510248
1.65903e-06
0.510248
1.8088e-06
0.510248
1.87904e-06
0.510249
1.90947e-06
0.510249
1.85554e-06
0.510249
1.6765e-06
0.510249
1.53204e-06
0.510249
1.45904e-06
0.510249
1.36723e-06
0.510249
1.30334e-06
0.51025
1.29688e-06
0.51025
1.31599e-06
0.51025
1.40572e-06
0.510251
1.53984e-06
0.510251
1.60633e-06
0.510252
1.62882e-06
0.510252
1.64494e-06
0.510253
1.55769e-06
0.510253
1.38051e-06
0.510253
1.27555e-06
0.510254
1.25172e-06
0.510254
1.23291e-06
0.510254
1.29114e-06
0.510255
1.47237e-06
0.510255
1.66589e-06
0.510255
1.79389e-06
0.510255
1.87604e-06
0.510256
1.92759e-06
0.510256
1.93714e-06
0.510256
1.86749e-06
0.510256
1.70334e-06