/*--------------------------------*- C++ -*----------------------------------*\
| =========                 |                                                 |
| \\      /  F ield         | OpenFOAM: The Open Source CFD Toolbox           |
|  \\    /   O peration     | Version:  2406                                  |
|   \\  /    A nd           | Website:  www.openfoam.com                      |
|    \\/     M anipulation  |                                                 |
\*---------------------------------------------------------------------------*/
FoamFile
{
    version     2.0;
    format      ascii;
    arch        "LSB;label=32;scalar=64";
    class       volScalarField;
    location    "1.25";
    object      p_rgh;
}
// * * * * * * * * * * * * * * * * * * * * * * * * * * * * * * * * * * * * * //

dimensions      [1 -1 -2 0 0 0 0];

internalField   nonuniform List<scalar> 
6250
(
10.0017
-3200.18
-1015.41
555.978
510.408
42.5431
-117.473
-40.3468
35.7858
42.0238
21.8571
12.2357
14.4445
18.0648
18.7325
17.847
17.2452
17.209
17.304
17.2845
17.1855
17.0847
17.0075
16.9411
16.8652
16.7895
16.7089
16.628
16.5535
16.4764
16.4015
16.3279
16.2487
16.1716
16.0971
16.0202
15.9428
15.8643
15.7841
15.7056
15.6316
15.5584
15.4821
15.4098
15.3404
15.2589
15.1718
15.0951
15.0244
14.9501
14.8724
14.7961
14.7215
14.6463
14.5696
14.4932
14.4205
14.3486
14.2758
14.2011
14.1248
14.052
13.9821
13.9113
13.8387
13.7653
13.692
13.6195
13.5493
13.4761
13.3967
13.3182
13.2449
13.176
13.1081
13.035
12.9584
12.8836
12.8123
12.7457
12.6773
12.6018
12.5227
12.4438
12.3703
12.3029
12.2357
12.165
12.0883
12.0069
11.9255
11.8464
11.771
11.699
11.6268
11.5511
11.47
11.388
11.3076
11.2282
11.1533
11.0822
11.0096
10.9335
10.8535
10.7704
10.6858
10.6032
10.5277
10.4575
10.3885
10.3195
10.246
10.1659
10.083
10.0004
9.91996
9.84368
9.77301
9.70642
9.64036
9.57246
9.49893
9.41855
9.33497
9.2502
9.16674
9.08912
9.01823
8.95077
8.88301
8.81349
8.74113
8.66566
8.58953
8.51257
8.43216
8.34876
8.26574
8.18714
8.11329
8.04142
7.97154
7.90224
7.83081
7.7594
7.68871
7.61552
7.53927
7.46069
7.37948
7.29764
7.21888
7.1438
7.07053
6.99855
6.92691
6.8551
6.78594
6.72034
6.65555
6.58952
6.5217
6.45287
6.38381
6.31397
6.2426
6.16801
6.08911
6.00836
5.92924
5.8523
5.77511
5.69667
5.61822
5.53908
5.45943
5.38266
5.30948
5.23714
5.16343
5.08838
5.01395
4.94155
4.87155
4.80397
4.73633
4.665
4.59034
4.5166
4.44553
4.37495
4.30366
4.2309
4.15565
4.0805
4.00764
3.93485
3.86081
3.78633
3.71098
3.63468
3.55939
3.48572
3.41192
3.33713
3.26139
3.1848
3.10931
3.03692
2.96533
2.89076
2.8134
2.73706
2.66347
2.58993
2.51534
2.44184
2.36906
2.29486
2.21985
2.14501
2.06973
1.99488
1.92158
1.84761
1.77155
1.69648
1.62444
1.55287
1.47889
1.40318
1.32855
1.256
1.18353
1.10917
1.03295
0.955744
0.878489
0.801581
0.72418
0.646559
0.570035
0.494204
0.418136
0.34162
0.265197
0.18888
0.115447
0.0341391
9.98363
-3200.23
-1015.44
555.979
510.411
42.5415
-117.483
-40.3501
35.7833
42.0235
21.8544
12.2329
14.4437
18.0615
18.7315
17.8529
17.253
17.2162
17.3119
17.2872
17.1808
17.0801
17.0011
16.934
16.8614
16.7864
16.7103
16.6331
16.5546
16.4745
16.4018
16.3295
16.2465
16.1675
16.0956
16.0173
15.938
15.8647
15.7904
15.7114
15.6329
15.5585
15.4835
15.4049
15.3315
15.2609
15.1823
15.101
15.0219
14.9432
14.8676
14.7975
14.7267
14.6498
14.5685
14.4897
14.4174
14.3464
14.2739
14.2005
14.1266
14.056
13.9857
13.9117
13.8359
13.761
13.6897
13.6188
13.547
13.4749
13.3993
13.3239
13.2515
13.1789
13.1058
13.03
12.9532
12.8803
12.8104
12.7445
12.6789
12.6063
12.5288
12.4492
12.3712
12.2988
12.2293
12.1599
12.0872
12.0083
11.9272
11.8474
11.7713
11.6988
11.6272
11.5535
11.4731
11.3888
11.307
11.2269
11.1504
11.0795
11.0094
10.9349
10.8544
10.771
10.6874
10.6042
10.5274
10.4573
10.3881
10.3188
10.2465
10.1668
10.0825
9.99884
9.91888
9.84334
9.773
9.70612
9.63823
9.56915
9.49765
9.42003
9.33843
9.25538
9.17123
9.08959
9.01458
8.94586
8.87948
8.81284
8.74375
8.6687
8.58929
8.50963
8.43027
8.35042
8.26916
8.1888
8.11264
8.039
7.96783
7.90014
7.83154
7.76035
7.68839
7.61436
7.53769
7.46009
7.38132
7.30057
7.22021
7.14257
7.06701
6.99433
6.92523
6.85665
6.78775
6.72068
6.65551
6.59061
6.52393
6.45481
6.38407
6.31204
6.23993
6.16793
6.09309
6.01378
5.93215
5.85143
5.77186
5.69239
5.61464
5.53837
5.46083
5.38302
5.30741
5.23431
5.16256
5.09036
5.01789
4.94609
4.87397
4.80176
4.73146
4.66242
4.59138
4.51822
4.44541
4.373
4.3015
4.23187
4.16073
4.08601
4.01042
3.93469
3.85835
3.78343
3.71002
3.63552
3.55998
3.48504
3.40986
3.33465
3.26134
3.18821
3.11285
3.03752
2.96472
2.89193
2.81557
2.73736
2.6621
2.58958
2.51594
2.44141
2.36752
2.29301
2.21824
2.14487
2.07103
1.99489
1.91945
1.8466
1.77309
1.69734
1.62253
1.55035
1.4784
1.40427
1.32867
1.25373
1.18011
1.10688
1.03288
0.957197
0.880029
0.802617
0.724962
0.646936
0.569829
0.493535
0.416996
0.340374
0.26386
0.187088
0.109272
0.0373091
9.96839
-3200.23
-1015.42
555.995
510.42
42.5453
-117.475
-40.3496
35.7752
42.0176
21.8574
12.237
14.4462
18.0649
18.7317
17.8497
17.2493
17.2117
17.3091
17.2918
17.1836
17.0816
17.0088
16.9388
16.8635
16.7867
16.7067
16.6313
16.5585
16.4798
16.4027
16.3283
16.2456
16.1644
16.0962
16.0248
15.9407
15.8579
15.7829
15.7129
15.642
15.5639
15.484
15.4053
15.329
15.2564
15.1793
15.0989
15.0229
14.9483
14.8725
14.7973
14.7225
14.6464
14.5693
14.4943
14.4225
14.3471
14.2691
14.1961
14.1259
14.0575
13.9872
13.9121
13.8375
13.7649
13.6929
13.6201
13.5444
13.47
13.3971
13.3243
13.2515
13.1775
13.1042
13.031
12.9573
12.8865
12.8158
12.7447
12.6737
12.5984
12.5222
12.4485
12.3761
12.3057
12.2344
12.1603
12.0846
12.0059
11.9255
11.8473
11.773
11.7017
11.6297
11.554
11.4707
11.3831
11.3016
11.2273
11.156
11.0858
11.0133
10.9353
10.851
10.7648
10.683
10.6048
10.531
10.4622
10.392
10.3185
10.2428
10.1631
10.0799
9.99706
9.91809
9.84433
9.77608
9.71174
9.64482
9.57244
9.4961
9.41488
9.33132
9.25032
9.17152
9.09342
9.01804
8.94725
8.87896
8.8116
8.74447
8.67272
8.59366
8.51013
8.42596
8.3445
8.26564
8.18849
8.11486
8.04264
7.96992
7.90007
7.83206
7.7619
7.68996
7.61594
7.53828
7.45879
7.37973
7.30019
7.22039
7.14299
7.06751
6.99341
6.9233
6.85627
6.7891
6.72183
6.65547
6.58992
6.52395
6.45634
6.38681
6.31464
6.24001
6.16472
6.08925
6.012
5.93206
5.85165
5.7725
5.69327
5.61503
5.53953
5.46395
5.38618
5.30818
5.23236
5.1597
5.08864
5.01731
4.94594
4.87426
4.80165
4.73024
4.66149
4.59228
4.52038
4.44804
4.37567
4.30237
4.23017
4.15832
4.08368
4.00809
3.93392
3.85961
3.78484
3.71061
3.63542
3.55889
3.48355
3.40962
3.33564
3.26269
3.19028
3.11487
3.03659
2.9599
2.88737
2.81583
2.74091
2.6641
2.58891
2.51444
2.43997
2.36718
2.29462
2.21992
2.14501
2.07106
1.99579
1.91981
1.84622
1.77364
1.69852
1.62198
1.5479
1.4769
1.40608
1.33302
1.25794
1.18226
1.10662
1.03118
0.955748
0.879665
0.803184
0.726241
0.648111
0.569884
0.492605
0.41579
0.339425
0.26378
0.18832
0.112132
0.0378961
9.96541
-3200.24
-1015.44
555.984
510.409
42.5305
-117.486
-40.346
35.7893
42.0214
21.8498
12.23
14.4475
18.065
18.7235
17.8476
17.2527
17.2125
17.3045
17.2868
17.1858
17.0826
17.0064
16.938
16.8616
16.7849
16.7086
16.6322
16.5563
16.4765
16.3991
16.3274
16.2484
16.1651
16.0897
16.0207
15.9459
15.8624
15.7817
15.7079
15.6365
15.5625
15.4858
15.4072
15.3295
15.257
15.1805
15.0977
15.019
14.946
14.8738
14.7987
14.7222
14.6465
14.5695
14.491
14.4177
14.348
14.2747
14.2002
14.1256
14.0523
13.982
13.9106
13.838
13.7662
13.6944
13.6211
13.5441
13.4675
13.3951
13.3256
13.2549
13.1789
13.1013
13.0263
12.9545
12.8879
12.8206
12.7482
12.6743
12.5969
12.5183
12.4452
12.3759
12.3089
12.2396
12.1621
12.0801
11.9991
11.9216
11.8486
11.7782
11.7052
11.6276
11.5489
11.4686
11.3848
11.3039
11.2293
11.1576
11.086
11.0118
10.9337
10.8506
10.764
10.6809
10.603
10.5298
10.4627
10.3959
10.323
10.2445
10.1619
10.0773
9.99434
9.91669
9.84421
9.77547
9.71049
9.64487
9.57368
9.49774
9.41679
9.33116
9.24672
9.16761
9.09234
9.0198
8.95065
8.8824
8.8123
8.74145
8.66899
8.59224
8.51105
8.42724
8.34464
8.26492
8.18689
8.1128
8.04259
7.97205
7.90181
7.8329
7.76208
7.68902
7.61501
7.53817
7.45832
7.37846
7.29883
7.21885
7.14149
7.06761
6.99479
6.92391
6.85616
6.78924
6.72181
6.65462
6.58837
6.52269
6.45618
6.38769
6.3163
6.24165
6.16502
6.08843
6.0118
5.93301
5.85245
5.77271
5.6931
5.61309
5.53575
5.46135
5.38681
5.31078
5.23424
5.15934
5.08699
5.016
4.94591
4.87633
4.80493
4.7315
4.65949
4.58938
4.51859
4.44756
4.37649
4.3032
4.22932
4.15721
4.08441
4.00987
3.93544
3.86038
3.78417
3.70923
3.63546
3.56061
3.48535
3.41044
3.33455
3.25895
3.1863
3.115
3.04103
2.96378
2.88698
2.81301
2.73913
2.66379
2.58957
2.51625
2.44159
2.3672
2.29408
2.21964
2.14409
2.07003
1.99606
1.92006
1.8446
1.77195
1.69967
1.62511
1.54943
1.47518
1.40274
1.33056
1.25737
1.1831
1.10784
1.03172
0.955055
0.877914
0.80105
0.725001
0.648475
0.570823
0.493287
0.416281
0.339193
0.262788
0.187581
0.112195
0.03741
9.96996
-3200.24
-1015.44
555.982
510.417
42.5456
-117.481
-40.3526
35.7816
42.0216
21.8603
12.2369
14.4442
18.0658
18.7276
17.8492
17.2544
17.2147
17.3024
17.2853
17.1881
17.0793
17.0005
16.9379
16.8658
16.7902
16.7104
16.6265
16.5531
16.4819
16.4041
16.3289
16.2503
16.1684
16.091
16.017
15.9423
15.8636
15.7868
15.7139
15.6385
15.5593
15.4837
15.4112
15.3335
15.2543
15.1764
15.0992
15.0237
14.9483
14.873
14.7976
14.7218
14.6474
14.5728
14.4947
14.417
14.3438
14.2712
14.1996
14.1286
14.0551
13.9831
13.9127
13.8412
13.768
13.6926
13.6171
13.542
13.4681
13.3966
13.3266
13.2555
13.1796
13.1021
13.0276
12.9551
12.887
12.8205
12.7478
12.6721
12.5959
12.5194
12.4482
12.3797
12.3092
12.237
12.1603
12.0796
12
11.9226
11.848
11.7775
11.7071
11.6305
11.5495
11.4673
11.3835
11.3028
11.2294
11.1599
11.089
11.0133
10.9326
10.8484
10.7623
10.6803
10.6051
10.5334
10.4644
10.3958
10.3219
10.2421
10.1595
10.0762
9.99452
9.91787
9.84679
9.77838
9.7118
9.64508
9.57322
9.49616
9.41609
9.33215
9.24697
9.16655
9.09155
9.01983
8.95183
8.88523
8.81527
8.74193
8.66701
8.5902
8.51055
8.42758
8.3442
8.26414
8.1869
8.11283
8.04309
7.97389
7.90327
7.83343
7.76295
7.68957
7.61484
7.53848
7.45871
7.37793
7.29844
7.21932
7.14163
7.06733
6.99475
6.92309
6.85452
6.789
6.72402
6.65808
6.59094
6.52279
6.4542
6.38552
6.31601
6.24373
6.16738
6.08837
6.00972
5.93131
5.85178
5.77291
5.69516
5.61614
5.53664
5.45937
5.3843
5.31008
5.23565
5.1613
5.08822
5.01605
4.94436
4.87434
4.80495
4.73343
4.66099
4.58989
4.51848
4.44651
4.37589
4.30472
4.23134
4.15788
4.08415
4.00863
3.93355
3.85984
3.78514
3.70974
3.63498
3.55966
3.48422
3.41036
3.33656
3.26128
3.18626
3.11305
3.04007
2.9648
2.88786
2.81261
2.73909
2.66441
2.58928
2.51533
2.44098
2.36635
2.29344
2.22045
2.14531
2.0702
1.99636
1.92139
1.84503
1.77025
1.6978
1.62532
1.55139
1.47686
1.40302
1.33009
1.25714
1.18325
1.10813
1.03214
0.956075
0.879578
0.802012
0.724459
0.647553
0.570428
0.493283
0.416931
0.34041
0.263534
0.187306
0.111668
0.0373182
9.96774
-3200.24
-1015.45
555.976
510.414
42.5397
-117.484
-40.3552
35.7824
42.0167
21.8474
12.2317
14.4485
18.0676
18.7274
17.8486
17.2497
17.2143
17.3084
17.287
17.19
17.0842
16.9999
16.9356
16.8638
16.7853
16.7101
16.6296
16.5522
16.4801
16.4003
16.3223
16.2509
16.176
16.0921
16.0099
15.9395
15.8674
15.7883
15.7089
15.6328
15.5595
15.4841
15.4069
15.3297
15.2547
15.1809
15.1036
15.0229
14.9429
14.8685
14.7984
14.7254
14.6473
14.569
14.4919
14.4175
14.3485
14.2751
14.197
14.1233
14.0521
13.9833
13.9152
13.8425
13.7673
13.6909
13.6144
13.5408
13.4693
13.3979
13.3265
13.2537
13.1772
13.1012
13.0297
12.9591
12.8887
12.8188
12.7445
12.6687
12.5949
12.5205
12.4497
12.3821
12.3112
12.2368
12.158
12.0755
11.9967
11.9232
11.8513
11.78
11.7071
11.628
11.5447
11.4635
11.3843
11.3069
11.2333
11.1617
11.0884
11.0104
10.9284
10.8455
10.7621
10.681
10.6061
10.5351
10.4654
10.396
10.3225
10.242
10.1575
10.0734
9.99238
9.91705
9.84795
9.7812
9.71388
9.64539
9.57234
9.49346
9.41266
9.33085
9.24755
9.16732
9.09242
9.02027
8.95115
8.88497
8.81706
8.74422
8.66674
8.58659
8.5062
8.42538
8.34421
8.2653
8.18844
8.11295
8.04178
7.97396
7.90492
7.83501
7.76446
7.69021
7.61333
7.53628
7.4575
7.37717
7.29778
7.2189
7.14062
7.06595
6.99492
6.92465
6.85512
6.78763
6.72154
6.65608
6.59112
6.52541
6.45734
6.38642
6.31375
6.24065
6.16623
6.0891
6.0108
5.93245
5.85234
5.77146
5.69271
5.61533
5.53776
5.46074
5.38464
5.30917
5.23434
5.16031
5.08801
5.01711
4.94554
4.87395
4.80383
4.73299
4.66077
4.5898
4.51917
4.44689
4.37488
4.30339
4.23025
4.15695
4.08472
4.01075
3.93494
3.85977
3.78444
3.70861
3.6341
3.55994
3.48484
3.41031
3.33652
3.26179
3.18625
3.11158
3.03849
2.96512
2.88917
2.81247
2.73794
2.6641
2.58959
2.51595
2.44229
2.36713
2.29262
2.21947
2.14499
2.06938
1.99527
1.92188
1.8468
1.7709
1.69651
1.62363
1.55091
1.47774
1.40405
1.33013
1.25638
1.18274
1.10827
1.03202
0.954954
0.878324
0.801606
0.724516
0.647586
0.570453
0.492682
0.415624
0.339534
0.26347
0.187672
0.111961
0.0374531
9.96866
-3200.24
-1015.44
555.972
510.405
42.5369
-117.479
-40.3515
35.7817
42.0215
21.8544
12.2335
14.4468
18.0689
18.7279
17.8452
17.2482
17.2142
17.3089
17.2861
17.1829
17.0819
17.0066
16.939
16.861
16.7821
16.7119
16.6347
16.5526
16.477
16.4015
16.3264
16.2513
16.1745
16.0945
16.0131
15.9399
15.8673
15.787
15.7081
15.6354
15.564
15.4867
15.4072
15.3304
15.255
15.18
15.1032
15.0237
14.9453
14.8707
14.7978
14.7229
14.6448
14.569
14.4964
14.4215
14.3485
14.2748
14.1962
14.122
14.053
13.9854
13.917
13.8426
13.765
13.6893
13.6154
13.5439
13.4727
13.3986
13.3237
13.2506
13.1768
13.1026
13.032
12.9618
12.8898
12.8178
12.7425
12.6661
12.5943
12.5239
12.454
12.3849
12.3108
12.233
12.1545
12.0744
11.9972
11.9254
11.8542
11.7813
11.7072
11.6285
11.5445
11.4615
11.3829
11.3078
11.2356
11.1647
11.0915
11.012
10.9268
10.8414
10.7589
10.6807
10.609
10.5404
10.4696
10.396
10.3196
10.2391
10.156
10.0735
9.99358
9.91795
9.84846
9.78251
9.71548
9.64636
9.57345
9.49385
9.41088
9.32878
9.24679
9.16727
9.09365
9.02315
8.95363
8.88548
8.81634
8.74384
8.66715
8.5867
8.50533
8.42432
8.34323
8.26447
8.18919
8.11501
8.04282
7.97415
7.90552
7.83544
7.76524
7.69214
7.61483
7.53635
7.45688
7.37597
7.29645
7.21888
7.14157
7.06603
6.99414
6.92439
6.85566
6.78877
6.72312
6.65705
6.59059
6.52411
6.45711
6.38818
6.31615
6.24197
6.16637
6.08829
6.00885
5.93067
5.85286
5.7737
5.69445
5.61585
5.53722
5.45946
5.38363
5.30939
5.23586
5.16199
5.08842
5.01673
4.9456
4.87397
4.80355
4.7335
4.66173
4.58995
4.5191
4.44729
4.37526
4.30414
4.23148
4.157
4.08344
4.00991
3.93484
3.86022
3.78582
3.70985
3.63396
3.55919
3.48411
3.40932
3.33608
3.26311
3.18856
3.11254
3.03725
2.96369
2.88938
2.81324
2.73794
2.66391
2.58934
2.5154
2.44247
2.36804
2.29271
2.21905
2.14573
2.07054
1.99501
1.9209
1.84694
1.77198
1.69702
1.62305
1.55007
1.47764
1.40481
1.33091
1.25639
1.18208
1.10803
1.03299
0.956264
0.878891
0.801504
0.723994
0.647107
0.570737
0.493518
0.41623
0.340004
0.263888
0.187771
0.112041
0.0373671
9.96686
-3200.24
-1015.44
555.975
510.41
42.5397
-117.482
-40.3547
35.7773
42.019
21.8522
12.2298
14.4434
18.0693
18.7301
17.8452
17.2486
17.2161
17.3078
17.2827
17.1825
17.0828
17.0063
16.9365
16.8616
16.7852
16.7118
16.6336
16.5516
16.4774
16.4026
16.323
16.2476
16.1748
16.0959
16.0138
15.937
15.8641
15.7888
15.7085
15.6318
15.5613
15.4849
15.4049
15.3308
15.2568
15.1785
15.1003
15.0228
14.9466
14.8737
14.7998
14.7216
14.6406
14.5639
14.4954
14.4264
14.3514
14.2722
14.1928
14.1212
14.0561
13.9895
13.9171
13.8383
13.7596
13.6861
13.6158
13.5469
13.4763
13.4005
13.3219
13.246
13.1737
13.1024
13.0333
12.9639
12.8906
12.8161
12.7407
12.6649
12.594
12.5256
12.4557
12.3852
12.3103
12.2307
12.1516
12.0729
11.9966
11.9263
11.8571
11.7833
11.7054
11.6248
11.542
11.4606
11.3835
11.3101
11.2376
11.1642
11.0891
11.01
10.9258
10.8409
10.759
10.6811
10.6089
10.5409
10.471
10.3966
10.3183
10.2367
10.1531
10.0713
9.99368
9.91976
9.8502
9.78404
9.71635
9.64516
9.57137
9.49248
9.40914
9.32699
9.24675
9.16802
9.09411
9.02399
8.95452
8.88565
8.81586
8.74312
8.66669
8.58585
8.50307
8.42175
8.34148
8.26312
8.18907
8.11713
8.04542
7.97576
7.90648
7.83498
7.76332
7.69102
7.61488
7.53645
7.45724
7.37606
7.29503
7.21684
7.14035
7.06525
6.99337
6.92435
6.85627
6.78897
6.72281
6.657
6.59095
6.52428
6.4567
6.38765
6.31565
6.24098
6.16565
6.08894
6.00984
5.93045
5.85175
5.77247
5.69312
5.61517
5.53799
5.46094
5.38424
5.30849
5.23442
5.16133
5.08837
5.0169
4.94648
4.87465
4.80256
4.73184
4.66081
4.58947
4.51918
4.44813
4.37543
4.30325
4.23112
4.15724
4.0834
4.01018
3.9352
3.8594
3.78454
3.70918
3.63353
3.55919
3.48499
3.40983
3.335
3.26154
3.18851
3.11387
3.03767
2.96255
2.88861
2.81345
2.73801
2.66393
2.58948
2.51465
2.4414
2.36822
2.29332
2.21866
2.14523
2.07095
1.99531
1.9201
1.84594
1.77195
1.69773
1.62351
1.54973
1.47693
1.40456
1.33146
1.25711
1.18186
1.10674
1.0316
0.955401
0.878704
0.801907
0.724365
0.646912
0.570524
0.493618
0.4158
0.339056
0.263086
0.187353
0.111955
0.0373983
9.95435
-3200.25
-1015.44
555.976
510.404
42.5293
-117.485
-40.3452
35.7837
42.0143
21.8507
12.2331
14.4412
18.065
18.7317
17.8503
17.2477
17.2112
17.3102
17.2906
17.1842
17.0784
17.0056
16.9394
16.8645
16.7846
16.7065
16.633
16.5556
16.4777
16.4037
16.3261
16.247
16.1722
16.0949
16.0136
15.9366
15.8653
15.7933
15.7128
15.6302
15.5574
15.4865
15.4092
15.3325
15.2564
15.1755
15.097
15.0244
14.9521
14.8764
14.796
14.7164
14.6417
14.5704
14.5009
14.4271
14.3476
14.2682
14.193
14.1245
14.0598
13.9913
13.9157
13.8352
13.7577
13.6873
13.6202
13.5508
13.4768
13.398
13.3189
13.2451
13.1758
13.1072
13.037
12.9641
12.8875
12.8115
12.7391
12.6675
12.5981
12.5295
12.4574
12.3836
12.3073
12.2279
12.1503
12.075
12.0001
11.9281
11.8575
11.7834
11.7047
11.6232
11.5411
11.4608
11.3846
11.3126
11.2414
11.1665
11.0883
11.0074
10.9233
10.8395
10.76
10.6841
10.6118
10.5429
10.4724
10.3968
10.3169
10.2345
10.1515
10.071
9.99494
9.9223
9.8523
9.78515
9.71723
9.64515
9.57035
9.4921
9.40905
9.32602
9.24621
9.16848
9.09485
9.02593
8.95766
8.88819
8.81657
8.74167
8.66428
8.58421
8.50214
8.42154
8.34261
8.2642
8.18902
8.1173
8.04623
7.97666
7.90845
7.83776
7.76484
7.69129
7.61472
7.53536
7.45597
7.37586
7.29514
7.21673
7.141
7.06642
6.99354
6.92323
6.8552
6.78903
6.72402
6.65895
6.59272
6.52483
6.45589
6.38682
6.31611
6.24214
6.16635
6.08925
6.00958
5.9293
5.85115
5.77382
5.69544
5.61628
5.53729
5.45937
5.38321
5.30871
5.236
5.16375
5.08989
5.01614
4.94494
4.8746
4.80382
4.73347
4.66228
4.58961
4.518
4.44746
4.37567
4.30345
4.23165
4.15817
4.08345
4.00974
3.93565
3.86025
3.78514
3.7097
3.6334
3.55834
3.48493
3.41116
3.33621
3.26109
3.18712
3.1136
3.03858
2.96301
2.88872
2.81399
2.73803
2.66322
2.58946
2.51519
2.44166
2.36881
2.29417
2.21848
2.14439
2.07117
1.99658
1.92098
1.84582
1.77129
1.69722
1.62355
1.55014
1.47709
1.40441
1.33157
1.25772
1.18246
1.10694
1.03178
0.955713
0.878741
0.801841
0.724439
0.646591
0.569723
0.493717
0.416927
0.339878
0.263664
0.187846
0.112212
0.0376377
9.9643
-3200.25
-1015.45
555.978
510.409
42.5383
-117.493
-40.3623
35.7848
42.0262
21.8477
12.228
14.4489
18.0701
18.7265
17.8456
17.2499
17.2145
17.3109
17.2856
17.1779
17.0797
17.0089
16.9399
16.8629
16.7835
16.7078
16.6355
16.5569
16.4725
16.3957
16.3269
16.2554
16.1762
16.0912
16.0105
15.9369
15.8665
15.793
15.7102
15.6271
15.556
15.4893
15.4135
15.3304
15.2494
15.1718
15.0983
15.0273
14.9533
14.8751
14.7931
14.714
14.6431
14.5733
14.5011
14.4248
14.3437
14.2665
14.1967
14.1293
14.06
13.9876
13.9117
13.8339
13.7592
13.6893
13.6211
13.5501
13.4746
13.3964
13.3182
13.2442
13.1757
13.1069
13.0357
12.9633
12.8878
12.8112
12.7379
12.667
12.5986
12.5312
12.4592
12.3828
12.3042
12.2243
12.1474
12.0752
12.0035
11.9314
11.8584
11.7817
11.7013
11.6198
11.5396
11.4618
11.3863
11.3133
11.2417
11.1666
11.0866
11.0047
10.9213
10.8385
10.7604
10.6863
10.614
10.5432
10.4714
10.3953
10.3151
10.2327
10.1499
10.0697
9.9945
9.9237
9.85472
9.78698
9.71816
9.64455
9.56732
9.48844
9.40675
9.32475
9.24651
9.17095
9.09726
9.02653
8.95695
8.8869
8.81527
8.74059
8.66345
8.58403
8.50147
8.41914
8.34011
8.26292
8.18852
8.11816
8.0487
7.97897
7.90965
7.83816
7.76375
7.68922
7.6137
7.53523
7.45575
7.37588
7.29483
7.2149
7.13853
7.06526
6.99418
6.92471
6.85602
6.78829
6.72209
6.6574
6.59308
6.52682
6.45743
6.38634
6.31416
6.23989
6.16456
6.08944
6.01222
5.93152
5.8502
5.77052
5.69248
5.61559
5.53884
5.46171
5.38455
5.30772
5.2329
5.16128
5.09049
5.01852
4.94648
4.87457
4.80235
4.73139
4.6614
4.59001
4.51803
4.44709
4.37561
4.30311
4.23114
4.15855
4.08398
4.00932
3.93484
3.8594
3.78431
3.70978
3.63402
3.55786
3.48332
3.41011
3.3367
3.26221
3.1874
3.11309
3.03805
2.962
2.88731
2.81383
2.7391
2.66391
2.58933
2.5143
2.43991
2.36769
2.29506
2.21988
2.14434
2.07017
1.99603
1.92108
1.84602
1.77136
1.69718
1.62335
1.54966
1.47639
1.40374
1.33126
1.25811
1.18326
1.10692
1.03062
0.954455
0.877786
0.801377
0.724965
0.647681
0.569917
0.492888
0.416431
0.339628
0.263076
0.187133
0.111827
0.0374331
9.95584
-3200.26
-1015.45
555.986
510.405
42.5274
-117.481
-40.3462
35.7799
42.0157
21.8489
12.2316
14.4438
18.0607
18.7217
17.8482
17.2556
17.2126
17.3044
17.2878
17.1874
17.0868
17.0052
16.9294
16.8598
16.79
16.7115
16.6311
16.5532
16.4771
16.4033
16.3282
16.249
16.1689
16.0892
16.0148
15.9445
15.8677
15.7873
15.7073
15.6301
15.5612
15.4909
15.4092
15.3243
15.2477
15.1785
15.1081
15.0311
14.9483
14.8663
14.7892
14.7184
14.6515
14.5792
14.499
14.4189
14.3418
14.2686
14.2014
14.1344
14.0607
13.9827
13.9059
13.8325
13.7635
13.6961
13.6254
13.5493
13.4702
13.3918
13.317
13.2468
13.1798
13.111
13.0368
12.9601
12.8842
12.8101
12.7393
12.671
12.6025
12.532
12.4573
12.3796
12.3018
12.2243
12.1493
12.078
12.0068
11.9334
11.8585
11.7809
11.7
11.6179
11.5379
11.4625
11.3896
11.3164
11.2432
11.1672
11.0855
11.0021
10.92
10.8391
10.7624
10.6896
10.6171
10.5444
10.4705
10.3935
10.3133
10.2319
10.1506
10.0712
9.99613
9.92555
9.85631
9.78735
9.71805
9.6449
9.56709
9.48742
9.40624
9.32431
9.24573
9.17148
9.0995
9.02937
8.95989
8.88879
8.81591
8.73971
8.66071
8.58105
8.50014
8.41925
8.34145
8.2657
8.19088
8.1187
8.04826
7.97821
7.90969
7.84053
7.76751
7.69167
7.61401
7.53372
7.45297
7.37405
7.2955
7.21685
7.13973
7.06508
6.99299
6.92368
6.85639
6.79007
6.72396
6.65793
6.59252
6.52671
6.45834
6.3875
6.31526
6.24059
6.16351
6.08675
6.01057
5.93264
5.85304
5.7731
5.69333
5.61457
5.53703
5.46058
5.38537
5.31054
5.23566
5.16194
5.08944
5.01706
4.94558
4.87527
4.80422
4.7326
4.66183
4.59068
4.51851
4.44698
4.37564
4.30305
4.23054
4.1585
4.08497
4.01043
3.93581
3.85985
3.78341
3.70858
3.63428
3.55917
3.48431
3.41051
3.3369
3.2623
3.18704
3.11265
3.03861
2.96315
2.88756
2.81331
2.73875
2.66369
2.5898
2.51578
2.44062
2.36674
2.29444
2.2208
2.14547
2.07058
1.99624
1.92125
1.84576
1.77082
1.69705
1.62397
1.55068
1.47718
1.40374
1.33025
1.25692
1.18322
1.108
1.03197
0.955562
0.878277
0.800706
0.723709
0.647278
0.570388
0.493203
0.4166
0.34013
0.263771
0.187772
0.112155
0.0375233
9.97196
-3200.25
-1015.46
555.968
510.412
42.538
-117.493
-40.3647
35.7779
42.0255
21.8558
12.2289
14.4412
18.0675
18.7338
17.8493
17.2422
17.2051
17.31
17.2955
17.1835
17.0732
16.9997
16.9381
16.8714
16.7931
16.7054
16.6229
16.553
16.4835
16.4047
16.3228
16.2424
16.1689
16.0986
16.0229
15.944
15.8602
15.7793
15.7083
15.6374
15.5636
15.4866
15.4033
15.3216
15.2479
15.1804
15.11
15.0293
14.9447
14.8654
14.792
14.7213
14.6513
14.5758
14.4938
14.4146
14.343
14.2748
14.2065
14.1347
14.0567
13.977
13.903
13.8347
13.7683
13.6993
13.6244
13.545
13.4656
13.3905
13.3188
13.2495
13.1808
13.1098
13.0351
12.9584
12.8826
12.81
12.7402
12.6717
12.603
12.5321
12.4566
12.3777
12.299
12.2227
12.1491
12.0793
12.0097
11.9355
11.857
11.7767
11.6964
11.6171
11.5389
11.4636
11.3909
11.3168
11.2414
11.165
11.0842
11.0008
10.9193
10.8395
10.7629
10.6905
10.6191
10.5455
10.4698
10.391
10.3095
10.2284
10.1494
10.0723
9.99822
9.928
9.85872
9.78822
9.71691
9.64292
9.56461
9.48453
9.40444
9.32408
9.24583
9.17177
9.10078
9.031
8.96053
8.88809
8.81429
8.73788
8.65882
8.57949
8.49948
8.41828
8.33947
8.26428
8.19074
8.11985
8.05084
7.981
7.91047
7.83959
7.76617
7.69036
7.61356
7.53442
7.45306
7.37261
7.29344
7.21526
7.13903
7.06515
6.99365
6.92425
6.85626
6.78955
6.72369
6.65783
6.59203
6.52615
6.45817
6.38719
6.31467
6.24063
6.1641
6.08652
6.00952
5.93169
5.85235
5.77256
5.69302
5.61474
5.53757
5.46052
5.38427
5.30931
5.23497
5.16199
5.09061
5.01861
4.94561
4.87382
4.80293
4.73193
4.66146
4.59069
4.51825
4.44595
4.37488
4.30336
4.23119
4.15896
4.085
4.00929
3.93412
3.85894
3.78316
3.70845
3.63452
3.55938
3.48351
3.40888
3.33582
3.2629
3.18845
3.11307
3.03789
2.96219
2.88628
2.81213
2.73873
2.6641
2.58954
2.51563
2.4408
2.36611
2.29341
2.22083
2.14621
2.07067
1.9957
1.92101
1.84598
1.77083
1.6964
1.62297
1.54997
1.47712
1.40431
1.33084
1.25691
1.18266
1.10701
1.03061
0.954552
0.878263
0.801233
0.72399
0.647046
0.570086
0.492936
0.416285
0.339887
0.263475
0.187417
0.111896
0.0374587
9.9571
-3200.27
-1015.46
555.984
510.412
42.5336
-117.485
-40.355
35.7853
42.0213
21.8451
12.2256
14.4451
18.0728
18.7283
17.8417
17.2463
17.2138
17.3131
17.2909
17.1785
17.0747
17.0059
16.9406
16.8645
16.785
16.7029
16.6276
16.5613
16.4883
16.4036
16.3172
16.239
16.1717
16.1018
16.0204
15.9368
15.8552
15.7807
15.7179
15.6478
15.5637
15.4767
15.3957
15.3253
15.2585
15.1862
15.1072
15.0235
14.9411
14.867
14.7988
14.7275
14.6505
14.5712
14.491
14.4147
14.3459
14.2788
14.208
14.1339
14.0553
13.9756
13.9021
13.8358
13.7712
13.7017
13.6248
13.543
13.4623
13.3886
13.3205
13.2535
13.184
13.1099
13.0328
12.9555
12.881
12.8115
12.7442
12.6756
12.604
12.5293
12.4522
12.3749
12.2995
12.2266
12.1541
12.0817
12.0094
11.9348
11.8569
11.7767
11.6959
11.6169
11.5397
11.4648
11.3926
11.3191
11.242
11.1634
11.0826
10.9997
10.9192
10.8422
10.7665
10.6928
10.6198
10.5447
10.4683
10.3906
10.3101
10.2287
10.1497
10.0732
9.99961
9.92961
9.86084
9.78976
9.71664
9.64164
9.56324
9.4831
9.40379
9.32518
9.24778
9.17333
9.10152
9.03141
8.96143
8.88972
8.8157
8.7386
8.65813
8.57689
8.4969
8.41737
8.34011
8.26629
8.19365
8.12171
8.05161
7.98143
7.91051
7.84
7.76777
7.69186
7.61387
7.53421
7.45281
7.37191
7.29336
7.21628
7.13996
7.06499
6.99276
6.92368
6.85643
6.79073
6.72573
6.65979
6.59257
6.52531
6.45764
6.38755
6.31509
6.24113
6.16461
6.08607
6.0081
5.93106
5.85338
5.77433
5.69431
5.61455
5.53661
5.46038
5.3853
5.31118
5.2367
5.16196
5.08921
5.01822
4.94691
4.8754
4.80397
4.73173
4.66023
4.59059
4.52012
4.44796
4.37583
4.30312
4.22966
4.15732
4.08534
4.01167
3.93643
3.86019
3.78298
3.70645
3.6325
3.55997
3.48652
3.41138
3.33592
3.26124
3.18686
3.11241
3.03869
2.96449
2.88833
2.81213
2.73746
2.66305
2.58891
2.51599
2.44245
2.36751
2.29337
2.22047
2.14678
2.07165
1.99609
1.9207
1.84559
1.7708
1.6966
1.6232
1.55021
1.47734
1.40451
1.33089
1.25649
1.18237
1.10776
1.03148
0.954913
0.878372
0.801149
0.723877
0.647014
0.570168
0.493199
0.416391
0.339782
0.263782
0.188107
0.112324
0.0376193
9.97015
-3200.25
-1015.46
555.967
510.404
42.5311
-117.481
-40.3588
35.7744
42.0207
21.8543
12.2353
14.4446
18.0656
18.7279
17.8457
17.2491
17.2143
17.3083
17.2858
17.1804
17.0774
17.0084
16.9409
16.8563
16.7796
16.7111
16.6384
16.5613
16.4763
16.3925
16.3189
16.2493
16.1801
16.1019
16.012
15.931
15.8616
15.7904
15.7165
15.6369
15.5539
15.4773
15.4053
15.3345
15.2586
15.1766
15.0961
15.0194
14.9463
14.8744
14.8014
14.7251
14.6443
14.5651
14.4905
14.4182
14.3501
14.2818
14.2066
14.1283
14.0508
13.9761
13.9065
13.8401
13.7723
13.6987
13.6193
13.5395
13.4625
13.3909
13.3237
13.2555
13.1834
13.107
13.0293
12.9537
12.8816
12.8136
12.746
12.6757
12.6027
12.5272
12.4504
12.3736
12.2982
12.2265
12.1563
12.0846
12.0109
11.9337
11.8532
11.7722
11.6928
11.6163
11.5416
11.4676
11.3937
11.3175
11.2391
11.1596
11.08
11
10.9201
10.8431
10.7679
10.6934
10.6198
10.5446
10.4663
10.3867
10.3068
10.2271
10.1498
10.0754
10.0024
9.93103
9.86142
9.79011
9.71564
9.63956
9.5611
9.48082
9.40171
9.32433
9.24849
9.17507
9.10354
9.03287
8.96177
8.88816
8.81227
8.73563
8.65666
8.57646
8.49717
8.41784
8.33903
8.26404
8.19253
8.12227
8.05355
7.98457
7.91267
7.83948
7.76579
7.68998
7.61258
7.53402
7.45312
7.3712
7.29117
7.2141
7.13942
7.06613
6.99403
6.92349
6.85527
6.78905
6.72474
6.66059
6.59433
6.52578
6.45635
6.38563
6.31319
6.24005
6.16554
6.08816
6.00884
5.92963
5.85097
5.77244
5.69391
5.61545
5.53771
5.46076
5.38442
5.30972
5.23646
5.16299
5.08985
5.01791
4.94612
4.87464
4.8041
4.73283
4.66037
4.58868
4.51794
4.44654
4.37539
4.30464
4.23191
4.15794
4.08406
4.00921
3.93398
3.85928
3.78404
3.70818
3.63263
3.55803
3.48432
3.41064
3.33654
3.26227
3.18769
3.11238
3.03714
2.9628
2.88782
2.81209
2.73754
2.66335
2.58857
2.51459
2.44154
2.36775
2.2936
2.22013
2.14645
2.07169
1.99634
1.92084
1.84539
1.77042
1.69623
1.62287
1.54984
1.47677
1.4041
1.33127
1.25701
1.18216
1.10705
1.03052
0.953658
0.877621
0.801167
0.72386
0.6469
0.570042
0.493165
0.416646
0.339823
0.263259
0.187598
0.112216
0.0374488
9.96433
-3200.25
-1015.45
555.978
510.411
42.5332
-117.483
-40.3548
35.7744
42.0154
21.8515
12.2337
14.4381
18.0593
18.7319
17.8529
17.2527
17.2095
17.2992
17.2873
17.1936
17.0871
17.0031
16.9311
16.8568
16.7853
16.7149
16.6355
16.5518
16.471
16.3992
16.3313
16.2559
16.1736
16.0901
16.0079
15.9334
15.8662
15.7953
15.7158
15.6319
15.552
15.4804
15.4111
15.3394
15.2593
15.1721
15.0911
15.0193
14.9507
14.88
14.8039
14.7237
14.6413
14.5633
14.4927
14.424
14.3541
14.2804
14.2024
14.1252
14.0508
13.9801
13.9117
13.8416
13.7706
13.696
13.6162
13.5383
13.4644
13.3939
13.3264
13.257
13.183
13.1051
13.0276
12.9532
12.8821
12.8155
12.7489
12.6773
12.6021
12.524
12.4471
12.374
12.3019
12.2306
12.1596
12.0852
12.0087
11.9311
11.8521
11.7729
11.6945
11.6183
11.5435
11.4687
11.394
11.3181
11.2395
11.159
11.0784
10.9991
10.9207
10.8447
10.7711
10.6966
10.6208
10.5435
10.464
10.3844
10.306
10.2284
10.152
10.078
10.0053
9.93266
9.86132
9.78993
9.71526
9.6385
9.56031
9.48009
9.40091
9.32451
9.24998
9.17734
9.10563
9.03391
8.96204
8.88849
8.81254
8.73521
8.65608
8.57516
8.49504
8.41709
8.34013
8.26551
8.19432
8.12395
8.05413
7.98544
7.91478
7.84134
7.76657
7.68967
7.61089
7.53204
7.45313
7.3732
7.29308
7.21452
7.1382
7.06437
6.99353
6.92507
6.85783