/*--------------------------------*- C++ -*----------------------------------*\
| =========                 |                                                 |
| \\      /  F ield         | OpenFOAM: The Open Source CFD Toolbox           |
|  \\    /   O peration     | Version:  2406                                  |
|   \\  /    A nd           | Website:  www.openfoam.com                      |
|    \\/     M anipulation  |                                                 |
\*---------------------------------------------------------------------------*/
FoamFile
{
    version     2.0;
    format      ascii;
    arch        "LSB;label=32;scalar=64";
    class       surfaceScalarField;
    location    "1.25";
    object      phi;
}
// * * * * * * * * * * * * * * * * * * * * * * * * * * * * * * * * * * * * * //

dimensions      [0 3 -1 0 0 0 0];

oriented        oriented;

internalField   nonuniform List<scalar> 
12225
(
0.510224
1.22515e-06
0.510218
5.93579e-06
0.51021
7.41574e-06
0.510205
5.71432e-06
0.5102
4.77067e-06
0.510195
4.75588e-06
0.51019
5.21303e-06
0.510185
5.32832e-06
0.510179
5.55121e-06
0.510173
5.78554e-06
0.510167
6.21683e-06
0.510161
6.27343e-06
0.510155
6.07055e-06
0.510149
5.92831e-06
0.510143
5.58389e-06
0.510138
5.10822e-06
0.510133
4.88298e-06
0.510129
4.79142e-06
0.510124
4.73407e-06
0.510119
4.86806e-06
0.510114
5.0637e-06
0.510109
5.11581e-06
0.510103
5.25261e-06
0.510098
5.22911e-06
0.510093
5.24899e-06
0.510087
5.6508e-06
0.510081
5.90242e-06
0.510075
5.97168e-06
0.510069
6.01984e-06
0.510064
5.82712e-06
0.510058
5.39885e-06
0.510053
5.13678e-06
0.510048
5.37474e-06
0.510042
5.68811e-06
0.510036
5.7793e-06
0.51003
5.98286e-06
0.510024
6.31825e-06
0.510018
6.35642e-06
0.510012
5.98134e-06
0.510006
5.54296e-06
0.510001
5.29649e-06
0.509996
5.09104e-06
0.509991
4.97883e-06
0.509985
5.31599e-06
0.50998
5.61093e-06
0.509974
5.30836e-06
0.50997
4.93724e-06
0.509965
4.92438e-06
0.509959
5.15212e-06
0.509954
5.38845e-06
0.509949
5.47391e-06
0.509943
5.41625e-06
0.509938
5.3237e-06
0.509933
5.31231e-06
0.509927
5.28928e-06
0.509922
5.17373e-06
0.509917
5.12371e-06
0.509912
5.28185e-06
0.509906
5.59011e-06
0.5099
5.79028e-06
0.509895
5.63502e-06
0.509889
5.21221e-06
0.509884
4.98962e-06
0.509879
5.20949e-06
0.509874
5.63326e-06
0.509868
5.87343e-06
0.509862
5.71471e-06
0.509857
5.46923e-06
0.509851
5.46376e-06
0.509846
5.48488e-06
0.50984
5.35597e-06
0.509835
5.11713e-06
0.50983
4.93041e-06
0.509825
5.03612e-06
0.50982
5.39157e-06
0.509814
5.69663e-06
0.509808
5.7262e-06
0.509803
5.54306e-06
0.509797
5.48415e-06
0.509792
5.5691e-06
0.509786
5.54355e-06
0.509781
5.32445e-06
0.509776
4.93039e-06
0.509771
4.59824e-06
0.509767
4.67535e-06
0.509762
5.16768e-06
0.509756
5.77648e-06
0.50975
6.11367e-06
0.509744
6.00363e-06
0.509738
5.65217e-06
0.509733
5.38268e-06
0.509727
5.3988e-06
0.509722
5.62737e-06
0.509716
5.84469e-06
0.50971
5.79859e-06
0.509705
5.35734e-06
0.5097
4.85782e-06
0.509695
4.69001e-06
0.50969
4.8241e-06
0.509685
5.16317e-06
0.509679
5.5937e-06
0.509674
5.8507e-06
0.509668
5.8071e-06
0.509662
5.6095e-06
0.509657
5.47036e-06
0.509651
5.40503e-06
0.509646
5.35729e-06
0.509641
5.36163e-06
0.509635
5.30888e-06
0.50963
5.11751e-06
0.509625
4.93745e-06
0.50962
4.84103e-06
0.509616
4.85852e-06
0.50961
5.07559e-06
0.509605
5.39843e-06
0.509599
5.59169e-06
0.509594
5.55921e-06
0.509588
5.43575e-06
0.509583
5.37227e-06
0.509578
5.43266e-06
0.509572
5.6719e-06
0.509566
5.90544e-06
0.50956
5.88173e-06
0.509555
5.6669e-06
0.509549
5.38493e-06
0.509544
5.09935e-06
0.509539
4.97537e-06
0.509534
5.06603e-06
0.509529
5.20045e-06
0.509524
5.25526e-06
0.509518
5.28815e-06
0.509513
5.33991e-06
0.509507
5.40638e-06
0.509502
5.5371e-06
0.509496
5.69488e-06
0.509491
5.73886e-06
0.509485
5.59039e-06
0.50948
5.28666e-06
0.509475
5.02971e-06
0.50947
4.97596e-06
0.509465
5.03781e-06
0.509459
5.16237e-06
0.509454
5.37049e-06
0.509449
5.55275e-06
0.509443
5.63803e-06
0.509437
5.66666e-06
0.509432
5.6508e-06
0.509426
5.62249e-06
0.50942
5.65475e-06
0.509415
5.73152e-06
0.509409
5.76233e-06
0.509403
5.72715e-06
0.509397
5.64251e-06
0.509392
5.49847e-06
0.509387
5.40037e-06
0.509381
5.45343e-06
0.509376
5.56281e-06
0.50937
5.65054e-06
0.509364
5.72784e-06
0.509358
5.73224e-06
0.509353
5.5885e-06
0.509347
5.38431e-06
0.509342
5.31387e-06
0.509337
5.43855e-06
0.509331
5.64584e-06
0.509325
5.78486e-06
0.50932
5.70505e-06
0.509314
5.38102e-06
0.509309
5.04498e-06
0.509304
4.96236e-06
0.509299
5.15826e-06
0.509294
5.43067e-06
0.509288
5.59874e-06
0.509282
5.66436e-06
0.509277
5.69614e-06
0.509271
5.73324e-06
0.509265
5.82077e-06
0.509259
5.94814e-06
0.509253
6.00686e-06
0.509247
5.8786e-06
0.509242
5.58009e-06
0.509236
5.29453e-06
0.509231
5.13667e-06
0.509226
5.06042e-06
0.509221
5.07258e-06
0.509216
5.23756e-06
0.50921
5.45464e-06
0.509205
5.54226e-06
0.509199
5.53823e-06
0.509194
5.5993e-06
0.509188
5.74165e-06
0.509182
5.88282e-06
0.509176
5.88395e-06
0.509171
5.59934e-06
0.509165
5.1367e-06
0.509161
4.80027e-06
0.509156
4.7283e-06
0.509151
4.84827e-06
0.509146
5.04514e-06
0.509141
5.14492e-06
0.509136
5.072e-06
0.509131
4.99001e-06
0.509126
5.03849e-06
0.509121
5.17557e-06
0.509115
5.37953e-06
0.50911
5.61052e-06
0.509104
5.66325e-06
0.509098
5.45786e-06
0.509093
5.21826e-06
0.509088
5.07728e-06
0.509083
4.95537e-06
0.509078
4.83371e-06
0.509074
4.82737e-06
0.509069
4.96935e-06
0.509064
5.07279e-06
0.509059
4.99441e-06
0.509054
4.84852e-06
0.509049
4.82599e-06
0.509044
4.9444e-06
0.509039
5.11977e-06
0.509034
5.26599e-06
0.509028
5.26884e-06
0.509023
5.16093e-06
0.509018
5.16308e-06
0.509013
5.31585e-06
0.509007
5.38226e-06
0.509002
5.2826e-06
0.508997
5.21351e-06
0.508991
5.27606e-06
0.508986
5.37398e-06
0.508981
5.45986e-06
0.508975
5.58379e-06
0.508969
5.76536e-06
0.508963
5.95491e-06
0.508957
6.05652e-06
0.508951
6.00671e-06
0.508945
5.86974e-06
0.50894
5.76821e-06
0.508934
5.75046e-06
0.508928
5.78847e-06
0.508922
5.84866e-06
0.508916
5.87297e-06
0.508911
5.80337e-06
0.508905
5.69814e-06
0.508899
5.65776e-06
0.508894
5.69154e-06
0.508888
5.83133e-06
0.508882
5.97684e-06
0.508875
6.59599e-06
6.06707e-06
0.510229
6.75376e-07
0.510234
9.88481e-07
0.51024
1.35879e-06
0.510244
1.7976e-06
0.510247
1.81276e-06
0.51025
1.86191e-06
0.510253
1.81887e-06
0.510256
2.55237e-06
0.510259
3.12016e-06
0.510261
2.94576e-06
0.510265
2.55182e-06
0.510269
2.4806e-06
0.510272
2.43227e-06
0.510276
2.27255e-06
0.51028
2.19003e-06
0.510282
2.22117e-06
0.510285
2.32185e-06
0.510287
2.53361e-06
0.510289
2.6397e-06
0.510292
2.45132e-06
0.510294
2.68281e-06
0.510296
2.76945e-06
0.510299
2.53865e-06
0.510302
2.64918e-06
0.510305
2.49122e-06
0.510308
2.29711e-06
0.510311
2.3754e-06
0.510315
2.28158e-06
0.510319
1.97208e-06
0.510323
1.86782e-06
0.510326
2.1456e-06
0.510329
2.3216e-06
0.510332
2.39714e-06
0.510335
2.6734e-06
0.510338
2.67625e-06
0.510342
2.41543e-06
0.510345
2.69775e-06
0.510349
3.30282e-06
0.510351
3.34098e-06
0.510354
2.66584e-06
0.510357
2.05776e-06
0.51036
2.0717e-06
0.510363
2.21178e-06
0.510366
2.23105e-06
0.510369
2.58274e-06
0.510371
3.09323e-06
0.510373
3.27649e-06
0.510375
3.07918e-06
0.510377
2.64767e-06
0.510381
2.12326e-06
0.510384
1.77915e-06
0.510388
1.85849e-06
0.510391
2.17049e-06
0.510394
2.335e-06
0.510397
2.27413e-06
0.5104
2.11551e-06
0.510403
2.16408e-06
0.510406
2.61034e-06
0.510408
2.99778e-06
0.510411
2.84482e-06
0.510415
2.38141e-06
0.510418
1.98807e-06
0.510421
1.91709e-06
0.510424
2.24302e-06
0.510427
2.63698e-06
0.51043
2.829e-06
0.510433
2.79849e-06
0.510436
2.56952e-06
0.510439
2.40762e-06
0.510442
2.36716e-06
0.510445
2.30305e-06
0.510448
2.41319e-06
0.51045
2.76008e-06
0.510452
3.01729e-06
0.510454
2.93619e-06
0.510457
2.59954e-06
0.510461
2.19271e-06
0.510465
1.90462e-06
0.510468
2.03153e-06
0.510471
2.61713e-06
0.510473
3.20469e-06
0.510475
3.39862e-06
0.510477
3.14742e-06
0.510479
2.61574e-06
0.510481
2.14106e-06
0.510485
1.96646e-06
0.510488
2.1373e-06
0.510492
2.4689e-06
0.510495
2.69571e-06
0.510498
2.75775e-06
0.510501
2.74251e-06
0.510503
2.76365e-06
0.510506
2.80891e-06
0.510509
2.81703e-06
0.510512
2.8101e-06
0.510515
2.73472e-06
0.510517
2.55934e-06
0.510519
2.48007e-06
0.510522
2.42525e-06
0.510525
2.21788e-06
0.510528
2.03351e-06
0.510532
2.08e-06
0.510536
2.3334e-06
0.510539
2.60033e-06
0.510541
2.81659e-06
0.510544
2.97872e-06
0.510546
2.93747e-06
0.510549
2.7244e-06
0.510551
2.53238e-06
0.510554
2.35595e-06
0.510557
2.22737e-06
0.51056
2.23626e-06
0.510562
2.29271e-06
0.510565
2.33065e-06
0.510568
2.43272e-06
0.510571
2.583e-06
0.510574
2.58192e-06
0.510577
2.34844e-06
0.51058
2.01542e-06
0.510584
1.67669e-06
0.510588
1.54632e-06
0.510592
1.88245e-06
0.510596
2.4991e-06
0.510598
3.03459e-06
0.5106
3.2987e-06
0.510602
3.15132e-06
0.510604
2.70067e-06
0.510607
2.34018e-06
0.51061
2.26607e-06
0.510613
2.33236e-06
0.510616
2.37909e-06
0.510619
2.34575e-06
0.510622
2.18836e-06
0.510626
2.04083e-06
0.510629
2.12985e-06
0.510633
2.48396e-06
0.510635
2.93985e-06
0.510637
3.20049e-06
0.510639
3.07924e-06
0.510641
2.73844e-06
0.510644
2.39789e-06
0.510647
2.13487e-06
0.51065
2.06657e-06
0.510654
2.21789e-06
0.510657
2.42837e-06
0.51066
2.60227e-06
0.510663
2.72209e-06
0.510666
2.7532e-06
0.510669
2.73018e-06
0.510672
2.71409e-06
0.510675
2.67447e-06
0.510678
2.6076e-06
0.510681
2.59121e-06
0.510684
2.58357e-06
0.510687
2.50985e-06
0.51069
2.49469e-06
0.510693
2.58165e-06
0.510696
2.61983e-06
0.510699
2.60573e-06
0.510702
2.63863e-06
0.510705
2.65773e-06
0.510708
2.54043e-06
0.510711
2.33368e-06
0.510714
2.20534e-06
0.510717
2.23359e-06
0.510721
2.41677e-06
0.510724
2.6841e-06
0.510726
2.81102e-06
0.510729
2.65096e-06
0.510731
2.38099e-06
0.510734
2.30055e-06
0.510737
2.46378e-06
0.51074
2.69196e-06
0.510743
2.81284e-06
0.510746
2.73255e-06
0.510749
2.457e-06
0.510753
2.18761e-06
0.510757
2.15878e-06
0.51076
2.3961e-06
0.510763
2.70674e-06
0.510766
2.83788e-06
0.510769
2.72759e-06
0.510771
2.60125e-06
0.510774
2.61224e-06
0.510776
2.64552e-06
0.510779
2.58947e-06
0.510782
2.52086e-06
0.510785
2.44268e-06
0.510788
2.30927e-06
0.510791
2.1666e-06
0.510795
2.06888e-06
0.510799
2.07922e-06
0.510802
2.30607e-06
0.510805
2.65104e-06
0.510808
2.88064e-06
0.51081
2.94772e-06
0.510811
2.89391e-06
0.510814
2.72183e-06
0.510816
2.55455e-06
0.510819
2.49889e-06
0.510821
2.4511e-06
0.510824
2.37492e-06
0.510827
2.3912e-06
0.510829
2.41187e-06
0.510832
2.29305e-06
0.510836
2.17942e-06
0.510839
2.25702e-06
0.510842
2.38469e-06
0.510845
2.45435e-06
0.510848
2.5801e-06
0.51085
2.70739e-06
0.510852
2.60761e-06
0.510855
2.29763e-06
0.510857
2.1464e-06
0.51086
2.36273e-06
0.510862
2.71293e-06
0.510864
2.89644e-06
0.510866
2.85062e-06
0.510869
2.6258e-06
0.510871
2.34539e-06
0.510874
2.25556e-06
0.510877
2.41085e-06
0.51088
2.50955e-06
0.510883
2.40212e-06
0.510886
2.31631e-06
0.510889
2.38184e-06
0.510892
2.45216e-06
0.510894
2.47852e-06
0.510897
2.55205e-06
0.5109
2.62854e-06
0.510903
2.57936e-06
0.510906
2.43096e-06
0.510909
2.31918e-06
0.510913
2.32803e-06
0.510916
2.47594e-06
0.51092
2.68718e-06
0.510923
2.80695e-06
0.510926
2.77119e-06
0.510929
2.64941e-06
0.510932
2.49241e-06
0.510936
2.38977e-06
0.510939
2.46235e-06
0.510942
2.6032e-06
0.510945
2.64773e-06
0.510948
2.59963e-06
0.510952
2.53392e-06
0.510955
2.49113e-06
0.510958
2.46897e-06
0.510962
2.45522e-06
2.75201e-06
0.510228
1.25799e-07
0.510229
3.16206e-07
0.510229
1.19796e-06
0.510229
1.90672e-06
0.510228
2.43207e-06
0.510227
2.94195e-06
0.510227
2.52049e-06
0.510228
1.56138e-06
0.51023
1.15025e-06
0.510231
1.60975e-06
0.510231
2.30784e-06
0.510231
2.62321e-06
0.510231
2.14804e-06
0.510232
1.99859e-06
0.510231
2.41549e-06
0.510232
2.08421e-06
0.510232
1.48311e-06
0.510234
1.26016e-06
0.510235
1.70234e-06
0.510235
2.22117e-06
0.510235
2.08597e-06
0.510236
2.21855e-06
0.510236
2.75895e-06
0.510235
3.05017e-06
0.510235
3.02949e-06
0.510234
2.6615e-06
0.510235
2.17062e-06
0.510235
2.19443e-06
0.510234
2.46745e-06
0.510234
2.61833e-06
0.510233
2.68631e-06
0.510233
2.4961e-06
0.510233
2.11353e-06
0.510234
2.2057e-06
0.510233
2.74015e-06
0.510233
2.45742e-06
0.510235
1.46141e-06
0.510237
1.21721e-06
0.510238
1.92041e-06
0.510238
2.64781e-06
0.510237
2.82126e-06
0.510237
2.56067e-06
0.510237
2.33211e-06
0.510237
2.24181e-06
0.510237
2.1632e-06
0.510238
1.98773e-06
0.51024
1.93721e-06
0.510241
2.21651e-06
0.510241
2.60832e-06
0.51024
2.75926e-06
0.510239
2.60152e-06
0.510239
2.31886e-06
0.510239
2.04138e-06
0.510239
1.82625e-06
0.51024
1.82342e-06
0.51024
2.1278e-06
0.51024
2.39312e-06
0.51024
2.25149e-06
0.510241
1.92087e-06
0.510242
1.69292e-06
0.510243
1.69766e-06
0.510243
1.98042e-06
0.510242
2.26826e-06
0.510242
2.44625e-06
0.510242
2.63044e-06
0.510242
2.74218e-06
0.510242
2.64803e-06
0.510243
2.3403e-06
0.510243
2.08177e-06
0.510243
2.1089e-06
0.510243
2.24684e-06
0.510243
2.33379e-06
0.510244
2.46345e-06
0.510244
2.631e-06
0.510244
2.64869e-06
0.510245
2.44225e-06
0.510245
2.12152e-06
0.510245
1.78293e-06
0.510245
1.64825e-06
0.510246
1.85371e-06
0.510247
2.12583e-06
0.510248
2.22214e-06
0.510249
2.1609e-06
0.51025
2.02242e-06
0.51025
1.90829e-06
0.51025
1.81987e-06
0.51025
1.77804e-06
0.510251
1.91138e-06
0.510252
2.15364e-06
0.510252
2.30127e-06
0.510252
2.29132e-06
0.510253
2.22655e-06
0.510254
2.23854e-06
0.510254
2.38073e-06
0.510254
2.5825e-06
0.510254
2.58356e-06
0.510255
2.2538e-06
0.510255
1.9244e-06
0.510256
1.9407e-06
0.510256
2.16562e-06
0.510256
2.33569e-06
0.510255
2.43101e-06
0.510255
2.57976e-06
0.510255
2.73644e-06
0.510255
2.80479e-06
0.510255
2.85362e-06
0.510255
2.80415e-06
0.510255
2.53276e-06
0.510256
2.20375e-06
0.510256
1.93785e-06
0.510256
1.78289e-06
0.510257
1.89156e-06
0.510257
2.22066e-06
0.510257
2.51172e-06
0.510256
2.64473e-06
0.510256
2.65659e-06
0.510256
2.5371e-06
0.510256
2.32687e-06
0.510256
2.2084e-06
0.510256
2.16929e-06
0.510255
2.08116e-06
0.510255
2.06203e-06
0.510255
2.18554e-06
0.510256
2.36567e-06
0.510257
2.61032e-06
0.510257
2.81e-06
0.510257
2.73199e-06
0.510257
2.42492e-06
0.510257
2.14729e-06
0.510257
2.01443e-06
0.510258
2.02893e-06
0.510258
2.20286e-06
0.510258
2.4257e-06
0.510257
2.52968e-06
0.510257
2.48809e-06
0.510257
2.38909e-06
0.510257
2.36688e-06
0.510258
2.4543e-06
0.510259
2.50607e-06
0.510259
2.45904e-06
0.510259
2.35856e-06
0.510259
2.15345e-06
0.510259
1.8938e-06
0.51026
1.78957e-06
0.51026
1.89828e-06
0.510261
2.12882e-06
0.510261
2.38293e-06
0.510261
2.53604e-06
0.510261
2.52749e-06
0.510262
2.4329e-06
0.510262
2.31185e-06
0.510263
2.17907e-06
0.510263
2.11763e-06
0.510263
2.12228e-06
0.510264
2.02192e-06
0.510265
1.82712e-06
0.510265
1.74308e-06
0.510266
1.78653e-06
0.510267
1.87765e-06
0.510268
2.04987e-06
0.510268
2.2958e-06
0.510268
2.44024e-06
0.510268
2.33891e-06
0.510268
2.08349e-06
0.510269
1.86759e-06
0.510269
1.82675e-06
0.51027
2.02293e-06
0.51027
2.33342e-06
0.51027
2.49072e-06
0.51027
2.38177e-06
0.510271
2.19548e-06
0.510271
2.16145e-06
0.510271
2.29976e-06
0.510272
2.52275e-06
0.510272
2.70604e-06
0.510271
2.66615e-06
0.510271
2.33421e-06
0.510271
1.91086e-06
0.510272
1.70157e-06
0.510273
1.85178e-06
0.510274
2.19736e-06
0.510274
2.3865e-06
0.510274
2.30882e-06
0.510275
2.16911e-06
0.510275
2.11947e-06
0.510276
2.13354e-06
0.510276
2.20249e-06
0.510276
2.27849e-06
0.510276
2.25949e-06
0.510276
2.16735e-06
0.510276
2.08244e-06
0.510276
2.01323e-06
0.510277
2.01524e-06
0.510277
2.12622e-06
0.510278
2.22092e-06
0.510278
2.23061e-06
0.510279
2.25159e-06
0.51028
2.31533e-06
0.51028
2.40408e-06
0.51028
2.53084e-06
0.51028
2.56648e-06
0.510279
2.40422e-06
0.51028
2.25705e-06
0.51028
2.31299e-06
0.51028
2.41278e-06
0.510279
2.43025e-06
0.510279
2.47044e-06
0.510279
2.49695e-06
0.510279
2.3802e-06
0.510279
2.27799e-06
0.51028
2.44576e-06
0.510279
2.7777e-06
0.510279
2.9075e-06
0.510278
2.72429e-06
0.510278
2.46326e-06
0.510279
2.32125e-06
0.510279
2.32003e-06
0.51028
2.45522e-06
0.51028
2.6259e-06
0.510279
2.6285e-06
0.510279
2.47021e-06
0.510279
2.39184e-06
0.510279
2.42218e-06
0.510279
2.36024e-06
0.510279
2.21195e-06
0.51028
2.1403e-06
0.51028
2.10669e-06
0.51028
2.01705e-06
0.510281
1.98982e-06
0.510281
2.13318e-06
0.510282
2.33535e-06
0.510282
2.4482e-06
0.510282
2.43227e-06
0.510282
2.31636e-06
0.510282
2.19592e-06
0.510282
2.16879e-06
0.510283
2.23244e-06
0.510283
2.33516e-06
0.510284
2.43787e-06
0.510284
2.44053e-06
0.510284
2.27478e-06
0.510284
2.0996e-06
0.510285
2.07812e-06
0.510285
2.13565e-06
0.510286
2.171e-06
0.510286
2.20346e-06
0.510286
2.21896e-06
0.510286
2.20865e-06
0.510287
2.14636e-06
2.15784e-06
0.510228
-1.36284e-07
0.510228
5.46141e-07
0.510228
9.14739e-07
0.510229
1.30003e-06
0.51023
1.22338e-06
0.510232
7.48423e-07
0.510233
1.44454e-06
0.510233
2.29588e-06
0.510231
2.57087e-06
0.510231
2.29062e-06
0.510231
1.53035e-06
0.510232
1.51016e-06
0.510232
2.16319e-06
0.510232
2.05704e-06
0.510233
1.89545e-06
0.510233
2.32051e-06
0.510232
2.43532e-06
0.510231
2.17616e-06
0.51023
2.12862e-06
0.51023
2.12327e-06
0.51023
2.09789e-06
0.510231
2.11413e-06
0.510231
1.95535e-06
0.510233
1.7802e-06
0.510234
1.73248e-06
0.510235
1.70962e-06
0.510235
1.93629e-06
0.510235
2.36314e-06
0.510235
2.30874e-06
0.510236
1.76738e-06
0.510237
1.54614e-06
0.510238
1.70922e-06
0.510238
1.82364e-06
0.510239
1.76561e-06
0.510239
1.89999e-06
0.51024
2.3031e-06
0.510239
2.28659e-06
0.510238
1.81303e-06
0.510239
1.47209e-06
0.51024
1.42121e-06
0.510241
1.6591e-06
0.510241
2.08594e-06
0.510241
2.3424e-06
0.510241
2.25079e-06
0.510241
2.22254e-06
0.510241
2.32393e-06
0.510241
2.09197e-06
0.510242
1.63027e-06
0.510243
1.50471e-06
0.510243
1.89332e-06
0.510244
2.42987e-06
0.510243
2.66632e-06
0.510243
2.48834e-06
0.510243
2.15695e-06
0.510242
1.96079e-06
0.510242
2.0805e-06
0.510242
2.49414e-06
0.510242
2.75731e-06
0.510241
2.45733e-06
0.510241
1.71e-06
0.510242
1.10138e-06
0.510243
1.14221e-06
0.510243
1.68817e-06
0.510244
2.19685e-06
0.510244
2.34694e-06
0.510244
2.21996e-06
0.510245
2.05594e-06
0.510245
1.82565e-06
0.510246
1.57621e-06
0.510246
1.67772e-06
0.510246
2.18048e-06
0.510246
2.67291e-06
0.510246
2.83155e-06
0.510246
2.58954e-06
0.510246
2.05459e-06
0.510247
1.61432e-06
0.510248
1.67928e-06
0.510247
2.06002e-06
0.510247
2.32457e-06
0.510246
2.43141e-06
0.510246
2.37518e-06
0.510246
2.11446e-06
0.510246
1.82148e-06
0.510247
1.65258e-06
0.510247
1.73944e-06
0.510247
2.05243e-06
0.510246
2.24648e-06
0.510246
2.17157e-06
0.510246
2.02748e-06
0.510246
2.00053e-06
0.510246
2.13151e-06
0.510246
2.30865e-06
0.510246
2.29138e-06
0.510247
1.99066e-06
0.510248
1.71437e-06
0.510248
1.73069e-06
0.510249
1.84331e-06
0.510249
1.84226e-06
0.510249
1.7939e-06
0.51025
1.75063e-06
0.51025
1.71316e-06
0.510251
1.73404e-06
0.510251
1.93174e-06
0.510252
2.30859e-06
0.510252
2.62423e-06
0.510252
2.71663e-06
0.510252
2.56213e-06
0.510253
2.13319e-06
0.510253
1.64904e-06
0.510254
1.40605e-06
0.510254
1.4426e-06
0.510254
1.72071e-06
0.510255
2.15514e-06
0.510255
2.48298e-06
0.510255
2.50408e-06
0.510255
2.30128e-06
0.510256
2.00011e-06
0.510256
1.64718e-06
0.510257
1.47612e-06
0.510258
1.65476e-06
0.510258
1.96396e-06
0.510257
2.23152e-06
0.510257
2.41226e-06
0.510257
2.36781e-06
0.510258
2.18562e-06
0.510258
2.10015e-06
0.510259
2.07434e-06
0.510259
1.9917e-06
0.51026
1.87643e-06
0.51026
1.73578e-06
0.51026
1.57721e-06
0.510261
1.5346e-06
0.510262
1.6931e-06
0.510262
1.96017e-06
0.510263
2.1926e-06
0.510263
2.2716e-06
0.510263
2.20482e-06
0.510263
2.10745e-06
0.510264
1.9663e-06
0.510265
1.76028e-06
0.510265
1.64514e-06
0.510266
1.67489e-06
0.510266
1.73768e-06
0.510266
1.8331e-06
0.510266
1.97354e-06
0.510266
2.11287e-06
0.510266
2.25821e-06
0.510266
2.39733e-06
0.510266
2.45529e-06
0.510266
2.44988e-06
0.510266
2.42972e-06
0.510266
2.33487e-06
0.510266
2.20557e-06
0.510266
2.20951e-06
0.510265
2.2818e-06
0.510265
2.23064e-06
0.510265
2.10411e-06
0.510264
1.98973e-06
0.510265
1.82938e-06
0.510265
1.66138e-06
0.510266
1.66081e-06
0.510266
1.87065e-06
0.510266
2.10948e-06
0.510266
2.1661e-06
0.510266
1.95824e-06
0.510266
1.59034e-06
0.510267
1.34304e-06
0.510268
1.46342e-06
0.510269
1.85506e-06
0.510269
2.16499e-06
0.510269
2.18332e-06
0.510269
2.00547e-06
0.51027
1.78771e-06
0.51027
1.65196e-06
0.510271
1.72728e-06
0.510272
2.00643e-06
0.510272
2.26757e-06
0.510272
2.29438e-06
0.510271
2.08288e-06
0.510271
1.86366e-06
0.510272
1.88714e-06
0.510272
2.09792e-06
0.510272
2.24708e-06
0.510272
2.25968e-06
0.510272
2.19135e-06
0.510272
2.05214e-06
0.510272
1.92969e-06
0.510273
1.93709e-06
0.510273
2.01794e-06
0.510273
2.10073e-06
0.510273
2.19524e-06
0.510272
2.23223e-06
0.510272
2.1926e-06
0.510272
2.21553e-06
0.510272
2.3041e-06
0.510272
2.32099e-06
0.510272
2.25691e-06
0.510272
2.12324e-06
0.510273
1.92262e-06
0.510273
1.8408e-06
0.510274
1.97302e-06
0.510274
2.08678e-06
0.510275
2.05857e-06
0.510275
2.0318e-06
0.510275
2.00999e-06
0.510276
1.89591e-06
0.510276
1.82656e-06
0.510277
1.93051e-06
0.510277
2.03862e-06
0.510278
1.97787e-06
0.510278
1.88488e-06
0.510279
1.98491e-06
0.51028
2.22849e-06
0.51028
2.38245e-06
0.51028
2.38965e-06
0.51028
2.3407e-06
0.51028
2.24941e-06
0.51028
2.15917e-06
0.510281
2.18207e-06
0.510281
2.24188e-06
0.510282
2.16183e-06
0.510282
2.0263e-06
0.510282
2.01941e-06
0.510283
2.05911e-06
0.510283
2.02354e-06
0.510283
2.00952e-06
0.510283
2.05472e-06
0.510283
2.00361e-06
0.510283
1.83136e-06
0.510284
1.71491e-06
0.510284
1.7503e-06
0.510285
1.87937e-06
0.510285
2.01268e-06
0.510285
2.07889e-06
0.510285
2.06554e-06
0.510286
2.02861e-06
0.510286
1.98925e-06
0.510286
1.91935e-06
0.510287
1.89636e-06
0.510287
2.00025e-06
0.510287
2.08369e-06
0.510288
2.03064e-06
0.510288
1.95217e-06
0.510288
1.92475e-06
0.510288
1.90173e-06
0.510288
1.8905e-06
0.510289
1.91521e-06
0.510289
1.95928e-06
0.510289
1.96814e-06
1.95047e-06
0.510228
1.48557e-07
0.510228
2.22333e-07
0.510228
6.28241e-07
0.510229
8.91884e-07
0.510229
1.28986e-06
0.510228
1.43551e-06
0.510228
1.43437e-06
0.510229
1.47813e-06
0.51023
1.19985e-06
0.510231
1.60229e-06
0.51023
2.20352e-06
0.51023
1.96639e-06
0.510231
1.42482e-06
0.510231
1.58331e-06
0.510231
1.76754e-06
0.510232
1.82974e-06
0.510232
2.13454e-06
0.510232
1.93236e-06
0.510233
1.49164e-06
0.510233
1.48429e-06
0.510234
1.34485e-06
0.510235
1.24035e-06
0.510235
1.60041e-06
0.510236
1.57503e-06
0.510236
1.37784e-06
0.510236
1.50287e-06
0.510237
1.52069e-06
0.510237
1.6746e-06
0.510238
1.9475e-06
0.510238
1.87626e-06
0.510237
1.95016e-06
0.510236
2.4151e-06
0.510236
2.28471e-06
0.510236
1.48275e-06
0.510237
1.34741e-06
0.510237
2.11325e-06
0.510237
2.65271e-06
0.510236
2.46717e-06
0.510235
2.03021e-06
0.510235
1.85806e-06
0.510235
1.89846e-06
0.510235
1.82363e-06
0.510236
1.80584e-06
0.510236
1.9171e-06
0.510236
1.83027e-06
0.510237
1.63721e-06
0.510238
1.50038e-06
0.510238
1.4415e-06
0.510238
1.54363e-06
0.510238
1.7078e-06
0.510239
1.68673e-06
0.51024
1.38158e-06
0.510241
1.09437e-06
0.510242
1.18766e-06
0.510243
1.55347e-06
0.510243
1.86799e-06
0.510244
1.91822e-06
0.510245
1.72759e-06
0.510245
1.67508e-06
0.510245
1.81098e-06
0.510245
1.83024e-06
0.510244
1.84052e-06
0.510244
1.93922e-06
0.510244
2.04661e-06
0.510244
2.04717e-06
0.510245
1.70383e-06
0.510245
1.21397e-06
0.510246
9.63229e-07
0.510247
9.65335e-07
0.510247
1.29023e-06
0.510247
1.93684e-06
0.510248
2.45853e-06
0.510248
2.50195e-06
0.510248
2.13046e-06
0.510249
1.54242e-06
0.51025
1.05774e-06
0.51025
1.11492e-06
0.51025
1.71561e-06
0.51025
2.2751e-06
0.510251
2.39235e-06
0.510251
2.14137e-06
0.510251
1.78606e-06
0.510251
1.6308e-06
0.510251
1.6905e-06
0.510251
1.76416e-06
0.510251
1.83289e-06
0.510252
1.8995e-06
0.510252
1.9428e-06
0.510252
2.02686e-06
0.510252
2.10967e-06
0.510252
2.08816e-06
0.510252
2.03793e-06
0.510252
2.03735e-06
0.510253
1.95687e-06
0.510252
1.77482e-06
0.510253
1.66008e-06
0.510253
1.5872e-06
0.510253
1.44931e-06
0.510254
1.34712e-06
0.510254
1.41712e-06
0.510254
1.63621e-06
0.510254
1.87892e-06
0.510254
2.08153e-06
0.510254
2.25748e-06
0.510254
2.31711e-06
0.510255
2.21418e-06
0.510255
2.05246e-06
0.510255
1.81194e-06
0.510256
1.49898e-06
0.510256
1.30038e-06
0.510256
1.28647e-06
0.510256
1.43219e-06
0.510257
1.76137e-06
0.510257
2.14334e-06
0.510257
2.28344e-06
0.510257
2.11633e-06
0.510257
1.82282e-06
0.510258
1.48134e-06
0.510258
1.21066e-06
0.510258
1.24701e-06
0.510259
1.52643e-06
0.510259
1.83316e-06
0.510259
2.10429e-06
0.51026
2.1911e-06
0.51026
2.00593e-06
0.51026
1.76885e-06
0.510261
1.63062e-06
0.510261
1.54554e-06
0.510261
1.52818e-06
0.510262
1.57662e-06
0.510262
1.58365e-06
0.510261
1.55134e-06
0.510262
1.61893e-06
0.510262
1.85702e-06
0.510262
2.17909e-06
0.510262
2.36422e-06
0.510262
2.26189e-06
0.510262
2.01102e-06
0.510262
1.79643e-06
0.510262
1.62917e-06
0.510262
1.54171e-06
0.510262
1.5524e-06
0.510262
1.56517e-06
0.510263
1.58895e-06
0.510263
1.70488e-06
0.510263
1.88568e-06
0.510263
2.08783e-06
0.510263
2.26853e-06
0.510264
2.29668e-06
0.510264
2.1429e-06
0.510264
1.96595e-06
0.510265
1.82885e-06
0.510265
1.69748e-06
0.510266
1.65834e-06
0.510266
1.74013e-06
0.510267
1.7788e-06
0.510267
1.74729e-06
0.510267
1.7884e-06
0.510267
1.88552e-06
0.510267
1.90287e-06
0.510267
1.81093e-06
0.510267
1.68365e-06
0.510268
1.61272e-06
0.510268
1.67837e-06
0.510268
1.85716e-06
0.510268
1.96264e-06
0.510267
1.845e-06
0.510267
1.6268e-06
0.510267
1.56604e-06
0.510268
1.71915e-06
0.510268
1.93015e-06
0.510268
2.07836e-06
0.510268
2.11336e-06
0.510267
1.97903e-06
0.510267
1.72659e-06
0.510268
1.5364e-06
0.510269
1.5166e-06
0.510269
1.62839e-06
0.51027
1.73024e-06
0.51027
1.7111e-06
0.51027
1.66323e-06
0.51027
1.71e-06
0.510271
1.77568e-06
0.510271
1.78321e-06
0.510272
1.77151e-06
0.510272
1.71991e-06
0.510272
1.61158e-06
0.510273
1.53221e-06
0.510273
1.49675e-06
0.510274
1.47303e-06
0.510275
1.52916e-06
0.510275
1.66453e-06
0.510276
1.76417e-06
0.510276
1.83086e-06
0.510276
1.90481e-06
0.510277
1.9227e-06
0.510277
1.92225e-06
0.510277
1.97493e-06
0.510277
1.97057e-06
0.510277
1.88262e-06
0.510277
1.86539e-06
0.510278
1.88061e-06
0.510278
1.794e-06
0.510278
1.7224e-06
0.510278
1.7968e-06
0.510278
1.88126e-06
0.510278
1.87964e-06
0.510278
1.90305e-06
0.510278
1.98228e-06
0.510278
1.95983e-06
0.510279
1.78013e-06
0.510279
1.64177e-06
0.510279
1.70757e-06
0.51028
1.86321e-06
0.51028
1.95226e-06
0.510281
1.9713e-06
0.510281
1.91279e-06
0.510281
1.77494e-06
0.510282
1.71058e-06
0.510282
1.80473e-06
0.510283
1.88156e-06
0.510283
1.81242e-06
0.510283
1.72341e-06
0.510284
1.68414e-06
0.510284
1.60597e-06
0.510284
1.53616e-06
0.510285
1.61622e-06
0.510285
1.77725e-06
0.510285
1.84296e-06
0.510285
1.80008e-06
0.510285
1.74142e-06
0.510285
1.74055e-06
0.510285
1.83674e-06
0.510285
1.96908e-06
0.510285
2.01564e-06
0.510286
1.98816e-06
0.510286
1.98547e-06
0.510285
1.97639e-06
0.510285
1.90503e-06
0.510286
1.8465e-06
0.510286
1.83814e-06
0.510286
1.80844e-06
0.510286
1.75435e-06
0.510286
1.75213e-06
0.510287
1.77265e-06
0.510287
1.75009e-06
0.510287
1.70292e-06
0.510287
1.67158e-06
0.510288
1.6876e-06
1.69264e-06
0.510229
-4.61628e-08
0.510229
-4.31981e-08
0.51023
-1.09327e-07
0.51023
6.02751e-07
0.51023
1.32263e-06
0.51023
1.58114e-06
0.51023
1.33505e-06
0.51023
1.31936e-06
0.51023
1.53658e-06
0.51023
1.34553e-06
0.510232
1.03154e-06
0.510232
1.08496e-06
0.510233
1.21386e-06
0.510233
1.12484e-06
0.510234
1.03773e-06
0.510234
1.23362e-06
0.510235
1.46577e-06
0.510235
1.68864e-06
0.510235
1.57279e-06
0.510235
1.65714e-06
0.510234
2.25106e-06
0.510233
2.14623e-06
0.510233
1.53452e-06
0.510233
1.57375e-06
0.510233
2.10486e-06
0.510232
2.43674e-06
0.510231
2.04596e-06
0.510231
1.43244e-06
0.510232
1.41571e-06
0.510232
1.8036e-06
0.510232
1.81085e-06
0.510233
1.43874e-06
0.510234
1.27398e-06
0.510235
1.04165e-06
0.510235
6.7106e-07
0.510237
8.93533e-07
0.510238
1.35679e-06
0.510239
1.4501e-06
0.510239
1.39394e-06
0.51024
1.44867e-06
0.51024
1.54113e-06
0.51024
1.5875e-06
0.510241
1.44501e-06
0.510241
1.33941e-06
0.510242
1.39669e-06
0.510242
1.54266e-06
0.510242
1.69547e-06
0.510241
1.82992e-06
0.510241
1.89993e-06
0.510241
1.86318e-06
0.510241
1.76199e-06
0.51024
1.66102e-06
0.51024
1.53514e-06
0.51024
1.48096e-06
0.51024
1.54277e-06
0.51024
1.62212e-06
0.51024
1.7268e-06
0.51024
1.64462e-06
0.510241
1.33658e-06
0.510241
1.23209e-06
0.510242
1.33984e-06
0.510242
1.48767e-06
0.510242
1.68897e-06
0.510243
1.80398e-06
0.510243
1.80252e-06
0.510243
1.63987e-06
0.510243
1.29035e-06
0.510243
1.12286e-06
0.510242
1.35332e-06
0.510242
1.83495e-06
0.510241
2.38227e-06
0.510241
2.57933e-06
0.510242
2.10665e-06
0.510242
1.33964e-06
0.510243
8.50504e-07
0.510243
7.84074e-07
0.510243
1.04818e-06
0.510244
1.52749e-06
0.510244
1.87269e-06
0.510244
1.87282e-06
0.510245
1.63845e-06
0.510245
1.2992e-06
0.510246
1.07193e-06
0.510247
1.1334e-06
0.510247
1.32311e-06
0.510247
1.47682e-06
0.510248
1.54204e-06
0.510248
1.46804e-06
0.510249
1.41788e-06
0.510249
1.56225e-06
0.51025
1.74626e-06
0.51025
1.80886e-06
0.51025
1.78444e-06
0.51025
1.64466e-06
0.510251
1.39787e-06
0.510251
1.28054e-06
0.510251
1.38776e-06
0.510251
1.49269e-06
0.510251
1.45027e-06
0.510251
1.35364e-06
0.510252
1.33932e-06
0.510252
1.47094e-06
0.510252
1.75148e-06
0.510253
2.12398e-06
0.510252
2.37107e-06
0.510252
2.24698e-06
0.510253
1.80316e-06
0.510253
1.29191e-06
0.510254
9.4389e-07
0.510254
9.8327e-07
0.510254
1.38299e-06
0.510254
1.80778e-06
0.510253
2.00285e-06
0.510254
1.98421e-06
0.510254
1.79249e-06
0.510255
1.50251e-06
0.510255
1.33188e-06
0.510255
1.31896e-06
0.510255
1.32815e-06
0.510255
1.41891e-06
0.510255
1.6127e-06
0.510255
1.76336e-06
0.510255
1.90289e-06
0.510255
2.03786e-06
0.510255
1.98403e-06
0.510255
1.77636e-06
0.510255
1.57455e-06
0.510256
1.36436e-06
0.510256
1.18011e-06
0.510256
1.14369e-06
0.510257
1.24401e-06
0.510257
1.38267e-06
0.510257
1.48037e-06
0.510257
1.52534e-06
0.510258
1.60649e-06
0.510259
1.74005e-06
0.510259
1.77399e-06
0.510259
1.64839e-06
0.51026
1.46708e-06
0.51026
1.27021e-06
0.51026
1.11252e-06
0.510261
1.13403e-06
0.510261
1.2997e-06
0.510261
1.4713e-06
0.510261
1.63033e-06
0.510262
1.74804e-06
0.510262
1.79666e-06
0.510262
1.85655e-06
0.510263
1.9204e-06
0.510263
1.88069e-06
0.510263
1.75298e-06