/*--------------------------------*- C++ -*----------------------------------*\
| =========                 |                                                 |
| \\      /  F ield         | OpenFOAM: The Open Source CFD Toolbox           |
|  \\    /   O peration     | Version:  2406                                  |
|   \\  /    A nd           | Website:  www.openfoam.com                      |
|    \\/     M anipulation  |                                                 |
\*---------------------------------------------------------------------------*/
FoamFile
{
    version     2.0;
    format      ascii;
    arch        "LSB;label=32;scalar=64";
    class       volVectorField;
    location    "1.25";
    object      U;
}
// * * * * * * * * * * * * * * * * * * * * * * * * * * * * * * * * * * * * * //

dimensions      [0 1 -1 0 0 0 0];

internalField   nonuniform List<vector> 
6250
(
(50.4894 7.08585e-05 0)
(85.3283 0.000505254 0)
(73.1532 0.000800891 0)
(60.5267 0.000849751 0)
(59.7905 0.000774316 0)
(63.2469 0.000737801 0)
(64.7528 0.000759612 0)
(64.301 0.000777795 0)
(63.6846 0.000782525 0)
(63.5825 0.000776958 0)
(63.7248 0.000838862 0)
(63.8088 0.000922823 0)
(63.7981 0.00100483 0)
(63.7685 0.00104398 0)
(63.7597 0.00100336 0)
(63.7644 0.000912241 0)
(63.7683 0.000835955 0)
(63.7678 0.000784975 0)
(63.7659 0.000731329 0)
(63.7648 0.000680492 0)
(63.7644 0.000653043 0)
(63.7639 0.000656804 0)
(63.7634 0.000701312 0)
(63.7626 0.00076317 0)
(63.762 0.00083319 0)
(63.7613 0.000923388 0)
(63.7605 0.00100431 0)
(63.7598 0.00105053 0)
(63.7591 0.00106529 0)
(63.7583 0.00105698 0)
(63.7576 0.00102329 0)
(63.7569 0.000987042 0)
(63.7563 0.000986602 0)
(63.7556 0.000994045 0)
(63.7549 0.000974651 0)
(63.7542 0.000963491 0)
(63.7534 0.000988361 0)
(63.7526 0.00101103 0)
(63.7518 0.000997829 0)
(63.7511 0.000975096 0)
(63.7504 0.000969771 0)
(63.7498 0.000958704 0)
(63.7491 0.000927164 0)
(63.7486 0.000907303 0)
(63.7478 0.000890045 0)
(63.7471 0.000835039 0)
(63.7465 0.000770419 0)
(63.7459 0.00075331 0)
(63.7453 0.000794957 0)
(63.7446 0.000863371 0)
(63.7439 0.000924302 0)
(63.7432 0.00095396 0)
(63.7426 0.00094087 0)
(63.7419 0.00089865 0)
(63.7412 0.000850064 0)
(63.7406 0.000816272 0)
(63.74 0.000814649 0)
(63.7393 0.000842496 0)
(63.7386 0.000881918 0)
(63.7379 0.000921491 0)
(63.7372 0.000952868 0)
(63.7365 0.000968471 0)
(63.7359 0.000977096 0)
(63.7352 0.000984139 0)
(63.7346 0.000977915 0)
(63.7338 0.000948133 0)
(63.7331 0.000902565 0)
(63.7324 0.000879095 0)
(63.7317 0.000900734 0)
(63.731 0.000937634 0)
(63.7303 0.000953846 0)
(63.7297 0.000937173 0)
(63.7291 0.000895399 0)
(63.7285 0.000857434 0)
(63.7278 0.000852028 0)
(63.7271 0.000878908 0)
(63.7264 0.000903396 0)
(63.7257 0.000903767 0)
(63.725 0.000896288 0)
(63.7243 0.000888633 0)
(63.7236 0.00087071 0)
(63.7229 0.000843017 0)
(63.7223 0.000810899 0)
(63.7217 0.000785944 0)
(63.7211 0.000789016 0)
(63.7205 0.000831755 0)
(63.7198 0.000902089 0)
(63.7191 0.00096447 0)
(63.7183 0.000987516 0)
(63.7176 0.000967709 0)
(63.7169 0.000929508 0)
(63.7162 0.000907581 0)
(63.7156 0.000919444 0)
(63.7148 0.000958824 0)
(63.7141 0.000995677 0)
(63.7134 0.00099474 0)
(63.7127 0.000960028 0)
(63.7122 0.000924474 0)
(63.7116 0.000909813 0)
(63.7109 0.000930376 0)
(63.7103 0.000986961 0)
(63.7096 0.00104929 0)
(63.7088 0.00107737 0)
(63.7081 0.00105943 0)
(63.7074 0.00101844 0)
(63.7067 0.000975529 0)
(63.7061 0.000937761 0)
(63.7054 0.000912538 0)
(63.7047 0.000895214 0)
(63.7041 0.000877508 0)
(63.7035 0.000869978 0)
(63.7029 0.000881396 0)
(63.7022 0.000906874 0)
(63.7016 0.000939379 0)
(63.701 0.000965916 0)
(63.7003 0.000969912 0)
(63.6996 0.000954946 0)
(63.6989 0.000950553 0)
(63.6982 0.000974939 0)
(63.6975 0.00101699 0)
(63.6969 0.00105808 0)
(63.6961 0.00107392 0)
(63.6954 0.00104507 0)
(63.6947 0.000987347 0)
(63.694 0.000935669 0)
(63.6933 0.000911491 0)
(63.6927 0.000918239 0)
(63.6921 0.000939641 0)
(63.6914 0.000948705 0)
(63.6908 0.000939122 0)
(63.6901 0.000935029 0)
(63.6895 0.000959073 0)
(63.6888 0.00100893 0)
(63.6881 0.00106449 0)
(63.6874 0.00109639 0)
(63.6867 0.0010834 0)
(63.686 0.00102924 0)
(63.6853 0.000957247 0)
(63.6846 0.000902324 0)
(63.684 0.000887385 0)
(63.6834 0.000901024 0)
(63.6828 0.0009235 0)
(63.6821 0.000949567 0)
(63.6814 0.000971864 0)
(63.6807 0.000978272 0)
(63.68 0.000966544 0)
(63.6793 0.000945656 0)
(63.6786 0.000930942 0)
(63.6779 0.000936892 0)
(63.6772 0.000963308 0)
(63.6765 0.000992227 0)
(63.6757 0.00100486 0)
(63.675 0.00099039 0)
(63.6743 0.000949599 0)
(63.6737 0.000906473 0)
(63.673 0.000891442 0)
(63.6723 0.000908479 0)
(63.6716 0.000941258 0)
(63.6709 0.000975837 0)
(63.6702 0.00100027 0)
(63.6694 0.00100481 0)
(63.6688 0.000995194 0)
(63.6681 0.000989997 0)
(63.6674 0.000996895 0)
(63.6667 0.00100704 0)
(63.666 0.00101062 0)
(63.6653 0.00100141 0)
(63.6646 0.00098117 0)
(63.6639 0.000965338 0)
(63.6633 0.000964774 0)
(63.6627 0.00096751 0)
(63.662 0.000955486 0)
(63.6613 0.000933756 0)
(63.6606 0.000928334 0)
(63.6599 0.000955886 0)
(63.6592 0.00100862 0)
(63.6585 0.00106046 0)
(63.6578 0.00108077 0)
(63.657 0.00105775 0)
(63.6563 0.0010084 0)
(63.6555 0.000963191 0)
(63.6549 0.000944954 0)
(63.6542 0.000950032 0)
(63.6536 0.000949911 0)
(63.6529 0.000929573 0)
(63.6523 0.000911138 0)
(63.6517 0.000920385 0)
(63.6509 0.000950602 0)
(63.6502 0.000980577 0)
(63.6496 0.0010024 0)
(63.6489 0.00101912 0)
(63.6481 0.00103348 0)
(63.6474 0.00103569 0)
(63.6467 0.00100397 0)
(63.646 0.00093578 0)
(63.6454 0.000861634 0)
(63.6448 0.000816546 0)
(63.6442 0.000818959 0)
(63.6436 0.00086344 0)
(63.6429 0.000918303 0)
(63.6423 0.000952318 0)
(63.6417 0.000963283 0)
(63.641 0.000963225 0)
(63.6404 0.000961131 0)
(63.6397 0.000976867 0)
(63.6391 0.00102379 0)
(63.6383 0.00107326 0)
(63.6376 0.00108454 0)
(63.637 0.00105632 0)
(63.6364 0.00101352 0)
(63.6357 0.000972035 0)
(63.6351 0.0009432 0)
(63.6345 0.000939245 0)
(63.6339 0.000951705 0)
(63.6333 0.000947294 0)
(63.6326 0.000907195 0)
(63.632 0.000855382 0)
(63.6314 0.000828938 0)
(63.6308 0.00084057 0)
(63.6302 0.000879134 0)
(63.6295 0.000920531 0)
(63.6289 0.000936898 0)
(63.6282 0.000924426 0)
(63.6276 0.000915455 0)
(63.6269 0.000931932 0)
(63.6262 0.000949867 0)
(63.6256 0.000941211 0)
(63.6249 0.00091702 0)
(63.6243 0.00090351 0)
(63.6236 0.000911239 0)
(63.6229 0.000940272 0)
(63.6222 0.000985114 0)
(63.6215 0.00103135 0)
(63.6208 0.00106511 0)
(63.62 0.0010807 0)
(63.6193 0.00107689 0)
(63.6185 0.0010607 0)
(63.6178 0.00104868 0)
(63.6171 0.00105073 0)
(63.6164 0.00106374 0)
(63.6157 0.00108171 0)
(63.6149 0.00109375 0)
(63.6142 0.00108517 0)
(63.6135 0.00105871 0)
(63.6128 0.0010347 0)
(63.612 0.00102532 0)
(63.6113 0.00103669 0)
(63.6106 0.00105585 0)
(63.6099 0.00111724 0)
(63.6087 0.00112455 0)
(50.4901 9.17344e-05 0)
(85.3291 0.00042357 0)
(73.1561 0.000629752 0)
(60.5311 0.000591961 0)
(59.7962 0.000468702 0)
(63.2531 0.000416658 0)
(64.7602 0.000435991 0)
(64.3093 0.000528688 0)
(63.694 0.000629633 0)
(63.5929 0.000649325 0)
(63.7364 0.000619603 0)
(63.8217 0.000553687 0)
(63.8122 0.000481485 0)
(63.7838 0.000436837 0)
(63.7762 0.000414838 0)
(63.782 0.000411376 0)
(63.7868 0.000455026 0)
(63.7872 0.000523562 0)
(63.7862 0.00055572 0)
(63.7859 0.000539522 0)
(63.7865 0.000543031 0)
(63.7869 0.000546475 0)
(63.7873 0.000521279 0)
(63.7876 0.000475541 0)
(63.7878 0.000421297 0)
(63.7883 0.000423273 0)
(63.7887 0.000462511 0)
(63.7892 0.000475902 0)
(63.7896 0.000441176 0)
(63.7901 0.000386051 0)
(63.7907 0.000345208 0)
(63.791 0.00032197 0)
(63.7913 0.000345905 0)
(63.7918 0.000407452 0)
(63.7921 0.000436771 0)
(63.7925 0.000454015 0)
(63.793 0.000528243 0)
(63.7934 0.000606034 0)
(63.7937 0.000576788 0)
(63.794 0.000452835 0)
(63.7945 0.00035005 0)
(63.7949 0.000320513 0)
(63.7952 0.000326397 0)
(63.7955 0.000366768 0)
(63.796 0.000448298 0)
(63.7963 0.000523323 0)
(63.7965 0.000559005 0)
(63.7967 0.00054438 0)
(63.797 0.000485702 0)
(63.7973 0.000412937 0)
(63.7978 0.000369135 0)
(63.7983 0.000384008 0)
(63.7987 0.000433945 0)
(63.7991 0.000473701 0)
(63.7994 0.000475908 0)
(63.7998 0.000446226 0)
(63.8002 0.000428759 0)
(63.8006 0.00045891 0)
(63.8009 0.000505481 0)
(63.8012 0.000505779 0)
(63.8016 0.000445151 0)
(63.802 0.000359069 0)
(63.8024 0.000311233 0)
(63.8028 0.000343647 0)
(63.8031 0.000421535 0)
(63.8035 0.000479162 0)
(63.8039 0.000479536 0)
(63.8043 0.000446891 0)
(63.8047 0.000432184 0)
(63.805 0.000430092 0)
(63.8054 0.000416417 0)
(63.8058 0.00040822 0)
(63.8061 0.000424468 0)
(63.8063 0.000454815 0)
(63.8066 0.000476509 0)
(63.8069 0.000477004 0)
(63.8074 0.000453192 0)
(63.8078 0.000424443 0)
(63.8083 0.000439493 0)
(63.8087 0.000502009 0)
(63.809 0.000552625 0)
(63.8093 0.00054985 0)
(63.8095 0.000494494 0)
(63.8097 0.000420746 0)
(63.81 0.000378959 0)
(63.8104 0.000394175 0)
(63.8108 0.000450697 0)
(63.8113 0.000501948 0)
(63.8117 0.000509732 0)
(63.8121 0.00047926 0)
(63.8124 0.000447229 0)
(63.8128 0.000444423 0)
(63.8131 0.000461987 0)
(63.8135 0.00046984 0)
(63.8139 0.000447228 0)
(63.8142 0.000386758 0)
(63.8145 0.000323038 0)
(63.8148 0.000301805 0)
(63.8151 0.000312525 0)
(63.8154 0.000323442 0)
(63.8158 0.000331403 0)
(63.8163 0.000343882 0)
(63.8168 0.000357849 0)
(63.8171 0.000369095 0)
(63.8175 0.000388528 0)
(63.8178 0.000416414 0)
(63.8181 0.000430389 0)
(63.8184 0.000427107 0)
(63.8188 0.000412605 0)
(63.8191 0.000382491 0)
(63.8195 0.000350295 0)
(63.8198 0.000334121 0)
(63.8201 0.000334462 0)
(63.8204 0.000351858 0)
(63.8208 0.000385349 0)
(63.8212 0.000413699 0)
(63.8215 0.000409869 0)
(63.8219 0.000379153 0)
(63.8223 0.000345534 0)
(63.8228 0.000321586 0)
(63.8232 0.000328263 0)
(63.8238 0.000375295 0)
(63.8243 0.000429042 0)
(63.8246 0.000457194 0)
(63.8249 0.000451489 0)
(63.8252 0.000412367 0)
(63.8254 0.00036308 0)
(63.8257 0.000338517 0)
(63.8261 0.000342426 0)
(63.8265 0.000352083 0)
(63.8268 0.000353845 0)
(63.8272 0.000343533 0)
(63.8276 0.000321236 0)
(63.828 0.000304408 0)
(63.8284 0.00031231 0)
(63.8289 0.000345186 0)
(63.8293 0.000386932 0)
(63.8295 0.000409764 0)
(63.8298 0.000401083 0)
(63.83 0.000376954 0)
(63.8303 0.00034962 0)
(63.8307 0.000328622 0)
(63.8311 0.000336785 0)
(63.8315 0.000377984 0)
(63.8319 0.00042666 0)
(63.8323 0.000459738 0)
(63.8327 0.000469224 0)
(63.833 0.000459696 0)
(63.8334 0.000447905 0)
(63.8338 0.000447144 0)
(63.8342 0.000451826 0)
(63.8345 0.000454352 0)
(63.8349 0.000453869 0)
(63.8353 0.000443509 0)
(63.8357 0.000428852 0)
(63.836 0.000433261 0)
(63.8364 0.000455385 0)
(63.8368 0.000467903 0)
(63.8372 0.000460154 0)
(63.8376 0.000438881 0)
(63.8379 0.00040615 0)
(63.8383 0.000368565 0)
(63.8386 0.0003494 0)
(63.839 0.000363259 0)
(63.8395 0.000395076 0)
(63.8399 0.000419628 0)
(63.8403 0.000417712 0)
(63.8406 0.000382559 0)
(63.8409 0.000336908 0)
(63.8412 0.000321932 0)
(63.8416 0.000352449 0)
(63.842 0.000400841 0)
(63.8423 0.000431018 0)
(63.8427 0.000432186 0)
(63.843 0.000413462 0)
(63.8434 0.000392109 0)
(63.8439 0.000390127 0)
(63.8443 0.000414837 0)
(63.8448 0.000447536 0)
(63.8452 0.000459882 0)
(63.8456 0.00043638 0)
(63.8459 0.000393329 0)
(63.8462 0.000367067 0)
(63.8466 0.000368789 0)
(63.8468 0.000378117 0)
(63.8472 0.000383862 0)
(63.8475 0.000390819 0)
(63.8479 0.000395248 0)
(63.8483 0.000392435 0)
(63.8487 0.000390327 0)
(63.8492 0.000394168 0)
(63.8496 0.000405364 0)
(63.8501 0.000424695 0)
(63.8505 0.00043785 0)
(63.8508 0.000431345 0)
(63.8511 0.000415242 0)
(63.8513 0.000399069 0)
(63.8515 0.000379827 0)
(63.8518 0.00036023 0)
(63.8522 0.000340768 0)
(63.8525 0.000316046 0)
(63.8528 0.000300745 0)
(63.8532 0.000311082 0)
(63.8535 0.000326044 0)
(63.8538 0.000324488 0)
(63.8543 0.00032194 0)
(63.8547 0.000325057 0)
(63.8551 0.000316246 0)
(63.8555 0.000299077 0)
(63.8558 0.000292919 0)
(63.8561 0.000290688 0)
(63.8564 0.000273763 0)
(63.8566 0.000256103 0)
(63.857 0.000271403 0)
(63.8574 0.000319915 0)
(63.8577 0.000365038 0)
(63.8579 0.000384215 0)
(63.8582 0.000383129 0)
(63.8584 0.000369286 0)
(63.8587 0.000354291 0)
(63.8591 0.000357533 0)
(63.8595 0.00037406 0)
(63.8598 0.000376933 0)
(63.8601 0.000368333 0)
(63.8605 0.00037558 0)
(63.8609 0.00039567 0)
(63.8613 0.000403781 0)
(63.8616 0.000401691 0)
(63.862 0.000404142 0)
(63.8623 0.000405006 0)
(63.8626 0.000395326 0)
(63.863 0.000383481 0)
(63.8634 0.000380086 0)
(63.8639 0.000387949 0)
(63.8643 0.000405035 0)
(63.8648 0.000421102 0)
(63.8652 0.000423225 0)
(63.8655 0.000411651 0)
(63.8659 0.000393847 0)
(63.8663 0.000373409 0)
(63.8667 0.000362538 0)
(63.8672 0.000372433 0)
(63.8676 0.00038743 0)
(63.868 0.000389009 0)
(63.8684 0.000383011 0)
(63.8687 0.000378875 0)
(63.8691 0.000384184 0)
(63.8696 0.000392585 0)
(63.87 0.000439657 0)
(63.8707 0.000432694 0)
(50.4895 4.69062e-05 0)
(85.3293 1.93977e-05 0)
(73.1551 1.39458e-05 0)
(60.5295 3.01285e-05 0)
(59.7939 8.98234e-05 0)
(63.2507 0.000164256 0)
(64.7571 0.000149902 0)
(64.3058 9.36307e-05 0)
(63.6904 5.82462e-05 0)
(63.5893 7.42437e-05 0)
(63.7324 0.000113575 0)
(63.8172 0.000171429 0)
(63.8072 0.000162979 0)
(63.7785 0.000136104 0)
(63.7704 0.000143324 0)
(63.7757 0.000105918 0)
(63.7803 3.99553e-05 0)
(63.7805 1.36298e-05 0)
(63.7795 6.53272e-05 0)
(63.779 0.000132822 0)
(63.7791 0.000172563 0)
(63.7796 0.000194387 0)
(63.7796 0.000222868 0)
(63.7794 0.000264551 0)
(63.7794 0.000256203 0)
(63.7793 0.000189924 0)
(63.7793 0.000113735 0)
(63.7794 8.36651e-05 0)
(63.7793 9.61788e-05 0)
(63.7792 0.000137399 0)
(63.7792 0.000206094 0)
(63.7791 0.000241322 0)
(63.779 0.000234862 0)
(63.7792 0.000261429 0)
(63.7793 0.000296562 0)
(63.7791 0.000244106 0)
(63.7792 0.000152646 0)
(63.7795 0.000143853 0)
(63.7797 0.000202071 0)
(63.7798 0.000238006 0)
(63.7797 0.000233289 0)
(63.7796 0.000228397 0)
(63.7796 0.000224363 0)
(63.7796 0.00020654 0)
(63.7796 0.000195798 0)
(63.7797 0.000190076 0)
(63.7799 0.000187272 0)
(63.78 0.000200751 0)
(63.7801 0.000215152 0)
(63.7801 0.000199421 0)
(63.7799 0.000147103 0)
(63.7798 9.30794e-05 0)
(63.7798 6.40487e-05 0)
(63.7799 6.19858e-05 0)
(63.7799 8.56644e-05 0)
(63.78 0.00012749 0)
(63.78 0.000169039 0)
(63.7799 0.000196456 0)
(63.78 0.000203518 0)
(63.7802 0.000185393 0)
(63.7803 0.000166632 0)
(63.7804 0.000167954 0)
(63.7803 0.000180565 0)
(63.7803 0.000205552 0)
(63.7803 0.000237985 0)
(63.7803 0.000262711 0)
(63.7803 0.000260648 0)
(63.7803 0.000219323 0)
(63.7803 0.000173639 0)
(63.7804 0.000152453 0)
(63.7804 0.000142795 0)
(63.7804 0.000152309 0)
(63.7804 0.000198706 0)
(63.7805 0.000255537 0)
(63.7805 0.000273179 0)
(63.7806 0.000237479 0)
(63.7806 0.000173233 0)
(63.7806 0.000109763 0)
(63.7806 9.07678e-05 0)
(63.7807 0.000138398 0)
(63.7808 0.00020475 0)
(63.7809 0.0002382 0)
(63.7811 0.000230974 0)
(63.7812 0.000201419 0)
(63.7812 0.000174568 0)
(63.7813 0.000156624 0)
(63.7813 0.000148086 0)
(63.7813 0.000157258 0)
(63.7814 0.000180175 0)
(63.7815 0.000204193 0)
(63.7815 0.000222158 0)
(63.7816 0.000236904 0)
(63.7817 0.000250482 0)
(63.7817 0.000263979 0)
(63.7818 0.000281992 0)
(63.7818 0.000286181 0)
(63.7818 0.000263633 0)
(63.7819 0.000245427 0)
(63.782 0.000249681 0)
(63.782 0.000255539 0)
(63.782 0.000249917 0)
(63.7819 0.000246007 0)
(63.7819 0.000258887 0)
(63.7819 0.000276777 0)
(63.7818 0.000284724 0)
(63.7819 0.000288615 0)
(63.7819 0.000282234 0)
(63.7819 0.000260625 0)
(63.7819 0.000240734 0)
(63.782 0.000224356 0)
(63.782 0.000207189 0)
(63.7821 0.00020055 0)
(63.7821 0.000205139 0)
(63.7821 0.000211695 0)
(63.7821 0.000225067 0)
(63.782 0.000248547 0)
(63.782 0.000257297 0)
(63.7821 0.000232471 0)
(63.7821 0.00019008 0)
(63.782 0.000143236 0)
(63.7819 0.000107614 0)
(63.7819 0.000118901 0)
(63.7819 0.000179907 0)
(63.7819 0.000256486 0)
(63.7821 0.000318069 0)
(63.7821 0.000335899 0)
(63.7821 0.000301918 0)
(63.7821 0.000253823 0)
(63.7821 0.000232604 0)
(63.7822 0.000238751 0)
(63.7822 0.000253333 0)
(63.7822 0.000263603 0)
(63.7822 0.000260982 0)
(63.7822 0.000250556 0)
(63.7821 0.000250343 0)
(63.7821 0.000268943 0)
(63.7821 0.000302207 0)
(63.7822 0.000330827 0)
(63.7823 0.000330773 0)
(63.7824 0.000308405 0)
(63.7824 0.000282431 0)
(63.7824 0.000249868 0)
(63.7824 0.000210906 0)
(63.7824 0.000182496 0)
(63.7825 0.000176469 0)
(63.7826 0.000195248 0)
(63.7826 0.000230873 0)
(63.7826 0.000260552 0)
(63.7827 0.000265165 0)
(63.7827 0.000245164 0)
(63.7827 0.00021013 0)
(63.7828 0.000177797 0)
(63.7828 0.000174019 0)
(63.7829 0.000195693 0)
(63.783 0.000208608 0)
(63.783 0.000203006 0)
(63.7831 0.00019598 0)
(63.7832 0.000194266 0)
(63.7833 0.000201291 0)
(63.7834 0.000225821 0)
(63.7835 0.000257612 0)
(63.7835 0.000264868 0)
(63.7835 0.00023423 0)
(63.7835 0.000191541 0)
(63.7835 0.000172682 0)
(63.7836 0.000195922 0)
(63.7837 0.000250889 0)
(63.7838 0.000293774 0)
(63.7838 0.000282476 0)
(63.7838 0.000230475 0)
(63.7838 0.000196297 0)
(63.7838 0.000216467 0)
(63.7839 0.00027223 0)
(63.7839 0.000319121 0)
(63.784 0.000320636 0)
(63.7839 0.00026414 0)
(63.7839 0.00017979 0)
(63.7839 0.000126383 0)
(63.784 0.000138766 0)
(63.7841 0.000201606 0)
(63.7842 0.000262793 0)
(63.7842 0.000277032 0)
(63.7843 0.00025429 0)
(63.7843 0.000240937 0)
(63.7844 0.000252609 0)
(63.7844 0.00026716 0)
(63.7845 0.000266231 0)
(63.7845 0.00024612 0)
(63.7845 0.000211867 0)
(63.7845 0.000178954 0)
(63.7845 0.000156999 0)
(63.7845 0.000146048 0)
(63.7845 0.000155012 0)
(63.7846 0.000186984 0)
(63.7847 0.000224508 0)
(63.7848 0.000256867 0)
(63.7849 0.000284242 0)
(63.7849 0.000299361 0)
(63.785 0.000304201 0)
(63.785 0.000308631 0)
(63.7849 0.000301305 0)
(63.7849 0.000277448 0)
(63.7849 0.000267058 0)
(63.785 0.000280151 0)
(63.785 0.000283656 0)
(63.7849 0.000269308 0)
(63.7849 0.000264479 0)
(63.7849 0.000274096 0)
(63.7849 0.000285398 0)
(63.7849 0.000306229 0)
(63.785 0.000342233 0)
(63.785 0.000362989 0)
(63.7849 0.00033838 0)
(63.7848 0.000290918 0)
(63.7848 0.00026885 0)
(63.7848 0.00028169 0)
(63.7849 0.000304286 0)
(63.7849 0.000318126 0)
(63.785 0.000310477 0)
(63.7849 0.000275571 0)
(63.7849 0.000240524 0)
(63.7849 0.000238489 0)
(63.7849 0.000252705 0)
(63.7849 0.000242884 0)
(63.7849 0.00021312 0)
(63.7849 0.000195613 0)
(63.785 0.00019649 0)
(63.785 0.00020756 0)
(63.7851 0.000231813 0)
(63.7852 0.000262004 0)
(63.7852 0.000275881 0)
(63.7852 0.00026728 0)
(63.7852 0.000249654 0)
(63.7852 0.000235528 0)
(63.7852 0.000233226 0)
(63.7853 0.000245705 0)
(63.7853 0.000262914 0)
(63.7854 0.000274892 0)
(63.7854 0.000281156 0)
(63.7855 0.000274473 0)
(63.7854 0.000251844 0)
(63.7855 0.000235403 0)
(63.7856 0.000240829 0)
(63.7856 0.000254095 0)
(63.7857 0.000262104 0)
(63.7857 0.000265638 0)
(63.7858 0.000263302 0)
(63.7858 0.000257084 0)
(63.7858 0.00023868 0)
(63.7859 0.00024226 0)
(50.4897 -3.92556e-07 0)
(85.3291 3.95853e-05 0)
(73.1549 0.000128177 0)
(60.5295 0.000262359 0)
(59.7938 0.000331041 0)
(63.2511 0.000359891 0)
(64.7579 0.000378596 0)
(64.3067 0.000365671 0)
(63.6908 0.000350204 0)
(63.5893 0.000350226 0)
(63.7323 0.000346077 0)
(63.8173 0.000358492 0)
(63.8075 0.000374188 0)
(63.7785 0.000372904 0)
(63.7705 0.000399039 0)
(63.7761 0.00041541 0)
(63.7803 0.000377754 0)
(63.7803 0.000314552 0)
(63.779 0.000316371 0)
(63.7785 0.000352429 0)
(63.7786 0.000354267 0)
(63.7788 0.000367713 0)
(63.7789 0.000407326 0)
(63.779 0.000446166 0)
(63.7792 0.000469692 0)
(63.7793 0.000465497 0)
(63.7794 0.000451177 0)
(63.7794 0.000466332 0)
(63.7794 0.000466318 0)
(63.7794 0.00042993 0)
(63.7796 0.000402954 0)
(63.7797 0.000370917 0)
(63.7797 0.000307812 0)
(63.7798 0.000276668 0)
(63.7799 0.000325958 0)
(63.78 0.000349518 0)
(63.7799 0.000272766 0)
(63.7798 0.000208531 0)
(63.7798 0.000247077 0)
(63.7799 0.000335464 0)
(63.7801 0.000386325 0)
(63.7802 0.000386807 0)
(63.7802 0.000376113 0)
(63.7802 0.000369547 0)
(63.7802 0.000369805 0)
(63.7802 0.000358059 0)
(63.7801 0.000324012 0)
(63.7801 0.000313283 0)
(63.7803 0.000359097 0)
(63.7804 0.00043376 0)
(63.7805 0.000488908 0)
(63.7804 0.000498029 0)
(63.7804 0.000461883 0)
(63.7803 0.000404905 0)
(63.7803 0.000362241 0)
(63.7803 0.000361635 0)
(63.7803 0.000390001 0)
(63.7803 0.000394527 0)
(63.7802 0.000348687 0)
(63.7801 0.000271221 0)
(63.7802 0.000222359 0)
(63.7803 0.000251573 0)
(63.7804 0.000326178 0)
(63.7804 0.000389334 0)
(63.7805 0.000416684 0)
(63.7805 0.000416449 0)
(63.7806 0.000407348 0)
(63.7806 0.000382825 0)
(63.7807 0.000354348 0)
(63.7808 0.000363566 0)
(63.7808 0.000407287 0)
(63.7808 0.000441701 0)
(63.7807 0.000444394 0)
(63.7807 0.000416514 0)
(63.7807 0.000364357 0)
(63.7808 0.000318802 0)
(63.781 0.000313926 0)
(63.781 0.000330433 0)
(63.7809 0.000339741 0)
(63.7808 0.0003495 0)
(63.7808 0.0003536 0)
(63.7807 0.000337574 0)
(63.7808 0.00030841 0)
(63.7808 0.000280427 0)
(63.7809 0.000274266 0)
(63.7809 0.000291914 0)
(63.7808 0.000310097 0)
(63.7807 0.000319698 0)
(63.7807 0.000326016 0)
(63.7808 0.000330202 0)
(63.7808 0.000331378 0)
(63.7808 0.00033181 0)
(63.7808 0.000329307 0)
(63.7808 0.000322563 0)
(63.7809 0.000325774 0)
(63.781 0.000334175 0)
(63.7811 0.000317685 0)
(63.7811 0.000284807 0)
(63.7811 0.000271027 0)
(63.7812 0.000283057 0)
(63.7812 0.000303658 0)
(63.7813 0.000323356 0)
(63.7814 0.000353288 0)
(63.7815 0.000394184 0)
(63.7815 0.000424328 0)
(63.7815 0.000433675 0)
(63.7815 0.000414034 0)
(63.7816 0.000357345 0)
(63.7816 0.000293169 0)
(63.7817 0.000258897 0)
(63.7818 0.000264963 0)
(63.7818 0.000310809 0)
(63.7818 0.000376766 0)
(63.7818 0.000420273 0)
(63.7818 0.000418522 0)
(63.7819 0.000390603 0)
(63.7819 0.000358197 0)
(63.782 0.000330692 0)
(63.7821 0.000331319 0)
(63.7822 0.000362449 0)
(63.7822 0.000387761 0)
(63.7822 0.000393006 0)
(63.7822 0.000385716 0)
(63.7821 0.000367933 0)
(63.7822 0.000357275 0)
(63.7823 0.00036411 0)
(63.7824 0.000364255 0)
(63.7824 0.000340959 0)
(63.7825 0.000306698 0)
(63.7825 0.000275238 0)
(63.7825 0.000257635 0)
(63.7826 0.00026912 0)
(63.7827 0.000305707 0)
(63.7828 0.000342315 0)
(63.7828 0.000358811 0)
(63.7828 0.000348984 0)
(63.7829 0.000326896 0)
(63.7829 0.000311997 0)
(63.7829 0.000298793 0)
(63.783 0.000280783 0)
(63.7831 0.000271381 0)
(63.7832 0.00027215 0)
(63.7832 0.000274575 0)
(63.7832 0.000283403 0)
(63.7832 0.000300697 0)
(63.7832 0.000318497 0)
(63.7832 0.000334045 0)
(63.7833 0.000346085 0)
(63.7833 0.000353322 0)
(63.7833 0.000361972 0)
(63.7833 0.0003707 0)
(63.7832 0.000363681 0)
(63.7832 0.000342037 0)
(63.7832 0.000322422 0)
(63.7832 0.000300509 0)
(63.7831 0.000270552 0)
(63.7831 0.00025059 0)
(63.7831 0.000249141 0)
(63.7831 0.000253688 0)
(63.7831 0.000263184 0)
(63.7832 0.000289305 0)
(63.7832 0.000326403 0)
(63.7833 0.000349369 0)
(63.7833 0.000340329 0)
(63.7833 0.000302186 0)
(63.7833 0.000259668 0)
(63.7833 0.00025235 0)
(63.7834 0.000297469 0)
(63.7836 0.000361076 0)
(63.7836 0.000390328 0)
(63.7836 0.000369076 0)
(63.7836 0.000322928 0)
(63.7836 0.000285492 0)
(63.7837 0.000281068 0)
(63.7839 0.000316932 0)
(63.784 0.000366695 0)
(63.784 0.000386659 0)
(63.784 0.00035916 0)
(63.7839 0.000306361 0)
(63.7839 0.000272408 0)
(63.7839 0.00028395 0)
(63.784 0.000317016 0)
(63.784 0.000329738 0)
(63.784 0.000316621 0)
(63.784 0.000296306 0)
(63.784 0.000280533 0)
(63.784 0.000280035 0)
(63.784 0.000298181 0)
(63.7841 0.000319852 0)
(63.7841 0.000335206 0)
(63.7841 0.000346956 0)
(63.7841 0.000351278 0)
(63.784 0.000348874 0)
(63.784 0.000349063 0)
(63.784 0.000345899 0)
(63.784 0.000330558 0)
(63.784 0.000312602 0)
(63.784 0.000299345 0)
(63.784 0.000293751 0)
(63.7841 0.000307765 0)
(63.7842 0.000331403 0)
(63.7843 0.000331443 0)
(63.7843 0.000311602 0)
(63.7843 0.00030532 0)
(63.7844 0.000312035 0)
(63.7844 0.000312965 0)
(63.7845 0.000315636 0)
(63.7846 0.000324106 0)
(63.7846 0.000318932 0)
(63.7847 0.000300308 0)
(63.7847 0.00030079 0)
(63.7848 0.000335463 0)
(63.7849 0.00037287 0)
(63.785 0.000377072 0)
(63.785 0.000351797 0)
(63.785 0.000321546 0)
(63.785 0.000302524 0)
(63.785 0.000307665 0)
(63.7851 0.000337768 0)
(63.7851 0.000362744 0)
(63.7852 0.000357512 0)
(63.7852 0.000341809 0)
(63.7853 0.000341234 0)
(63.7853 0.000345274 0)
(63.7853 0.000340694 0)
(63.7854 0.00033633 0)
(63.7854 0.000330156 0)
(63.7854 0.000307049 0)
(63.7854 0.000277405 0)
(63.7854 0.000268029 0)
(63.7855 0.000282861 0)
(63.7856 0.000306304 0)
(63.7856 0.000323595 0)
(63.7857 0.000325095 0)
(63.7857 0.000312953 0)
(63.7857 0.000300786 0)
(63.7857 0.000294683 0)
(63.7857 0.00029165 0)
(63.7858 0.000297266 0)
(63.7859 0.000311663 0)
(63.7859 0.000314669 0)
(63.7859 0.000300188 0)
(63.7859 0.000287292 0)
(63.786 0.000282828 0)
(63.786 0.000279742 0)
(63.786 0.000279296 0)
(63.7861 0.000282362 0)
(63.7861 0.000285259 0)
(63.7861 0.000281648 0)
(63.7862 0.00028536 0)
(50.4897 -1.22884e-06 0)
(85.329 6.47297e-05 0)
(73.155 0.000106602 0)
(60.5294 0.000131003 0)
(59.7939 0.000102953 0)
(63.2507 2.32677e-05 0)
(64.7572 4.57134e-05 0)
(64.3061 0.000151314 0)
(63.6905 0.000214513 0)
(63.5893 0.000236086 0)
(63.7324 0.000193216 0)
(63.8169 0.000137291 0)
(63.8072 0.000120648 0)
(63.7784 0.000119417 0)
(63.7703 0.000133011 0)
(63.7758 0.000187119 0)
(63.7803 0.000253818 0)
(63.7804 0.000254111 0)
(63.7792 0.000216633 0)
(63.7789 0.000191231 0)
(63.779 0.000151951 0)
(63.7793 0.00010945 0)
(63.7795 7.91121e-05 0)
(63.7794 3.32941e-05 0)
(63.7795 -7.05277e-06 0)
(63.7795 -8.30264e-06 0)
(63.7795 2.86529e-05 0)
(63.7796 0.000103278 0)
(63.7798 0.000140958 0)
(63.7797 9.37839e-05 0)
(63.7797 6.11537e-05 0)
(63.7797 0.00011418 0)
(63.7795 0.000168053 0)
(63.7795 0.000150702 0)
(63.7796 0.000147961 0)
(63.7797 0.000219731 0)
(63.7796 0.000270919 0)
(63.7795 0.000244176 0)
(63.7795 0.000175036 0)
(63.7794 0.00011453 0)
(63.7793 0.000102991 0)
(63.7793 0.000135029 0)
(63.7794 0.000182959 0)
(63.7795 0.000209873 0)
(63.7795 0.000203651 0)
(63.7796 0.000190336 0)
(63.7797 0.000165024 0)
(63.7797 0.000120463 0)
(63.7797 8.89147e-05 0)
(63.7797 9.50389e-05 0)
(63.7798 0.000125217 0)
(63.7799 0.000145918 0)
(63.7801 0.000146266 0)
(63.7803 0.000149838 0)
(63.7803 0.000169348 0)
(63.7803 0.000199955 0)
(63.7804 0.000227701 0)
(63.7805 0.000228808 0)
(63.7806 0.000205713 0)
(63.7807 0.000163363 0)
(63.7806 0.000113124 0)
(63.7805 0.000101547 0)
(63.7805 0.000134808 0)
(63.7804 0.000174107 0)
(63.7805 0.000182142 0)
(63.7805 0.000141937 0)
(63.7806 8.70262e-05 0)
(63.7807 5.15402e-05 0)
(63.7808 3.96123e-05 0)
(63.7809 7.15428e-05 0)
(63.7809 0.0001519 0)
(63.7809 0.000230361 0)
(63.781 0.000261145 0)
(63.781 0.000240206 0)
(63.7811 0.000177122 0)
(63.7811 0.000109555 0)
(63.7812 0.000104652 0)
(63.7813 0.000168049 0)
(63.7813 0.000231633 0)
(63.7813 0.00025345 0)
(63.7813 0.00023458 0)
(63.7814 0.000194808 0)
(63.7814 0.000167759 0)
(63.7814 0.000163236 0)
(63.7814 0.000174921 0)
(63.7814 0.000201017 0)
(63.7815 0.000222903 0)
(63.7815 0.000225049 0)
(63.7815 0.000218202 0)
(63.7815 0.000214981 0)
(63.7815 0.00021636 0)
(63.7815 0.0002214 0)
(63.7816 0.000218787 0)
(63.7816 0.000188728 0)
(63.7816 0.000148563 0)
(63.7816 0.000136536 0)
(63.7816 0.000145746 0)
(63.7816 0.000148552 0)
(63.7817 0.000143532 0)
(63.7817 0.000139534 0)
(63.7818 0.000140564 0)
(63.7818 0.000147041 0)
(63.7817 0.000165344 0)
(63.7817 0.000199282 0)
(63.7817 0.000228801 0)
(63.7818 0.000238118 0)
(63.7819 0.000228072 0)
(63.7819 0.000192225 0)
(63.7819 0.000138728 0)
(63.782 9.59163e-05 0)
(63.782 7.83108e-05 0)
(63.782 9.2133e-05 0)
(63.782 0.000140971 0)
(63.7821 0.000200043 0)
(63.7821 0.00022607 0)
(63.7821 0.000207327 0)
(63.7822 0.000161848 0)
(63.7822 0.000102001 0)
(63.7822 5.65821e-05 0)
(63.7823 6.26085e-05 0)
(63.7823 0.000109151 0)
(63.7824 0.000164621 0)
(63.7824 0.000210039 0)
(63.7824 0.000220944 0)
(63.7824 0.000197076 0)
(63.7825 0.000172632 0)
(63.7826 0.000162335 0)
(63.7826 0.000157584 0)
(63.7827 0.000157023 0)
(63.7827 0.00015678 0)
(63.7827 0.000146787 0)
(63.7827 0.000133668 0)
(63.7827 0.000134859 0)
(63.7827 0.000156603 0)
(63.7827 0.000191251 0)
(63.7827 0.000217549 0)
(63.7827 0.000220269 0)
(63.7827 0.000210606 0)
(63.7827 0.000196829 0)
(63.7827 0.000173768 0)
(63.7827 0.000152697 0)
(63.7828 0.000146885 0)
(63.7828 0.000152241 0)
(63.7828 0.000167834 0)
(63.7828 0.000194674 0)
(63.7829 0.000224109 0)
(63.7829 0.000250213 0)
(63.7829 0.000268521 0)
(63.7829 0.000268291 0)
(63.7829 0.00025259 0)
(63.783 0.000240279 0)
(63.7831 0.000234473 0)
(63.7831 0.000230985 0)
(63.7832 0.00024197 0)
(63.7833 0.000264827 0)
(63.7833 0.00027299 0)
(63.7834 0.000261026 0)
(63.7834 0.000243869 0)
(63.7834 0.000222183 0)
(63.7834 0.000192345 0)
(63.7834 0.000166012 0)
(63.7834 0.000155603 0)
(63.7834 0.000160006 0)
(63.7835 0.000170505 0)
(63.7835 0.000173007 0)
(63.7835 0.000150816 0)
(63.7834 0.000108664 0)
(63.7834 8.01412e-05 0)
(63.7834 9.07762e-05 0)
(63.7835 0.000127856 0)
(63.7835 0.000162018 0)
(63.7835 0.000179533 0)
(63.7835 0.000178413 0)
(63.7835 0.000160859 0)
(63.7834 0.000143689 0)
(63.7834 0.000146896 0)
(63.7835 0.00016993 0)
(63.7836 0.000196027 0)
(63.7837 0.000207947 0)
(63.7837 0.000203785 0)
(63.7837 0.000203833 0)
(63.7838 0.000219753 0)
(63.7838 0.000235092 0)
(63.7839 0.000238164 0)
(63.784 0.000235345 0)
(63.784 0.00022757 0)
(63.784 0.000215376 0)
(63.7841 0.00020713 0)
(63.7841 0.000201589 0)
(63.7842 0.000195874 0)
(63.7843 0.000198802 0)
(63.7844 0.000208696 0)
(63.7844 0.000214998 0)
(63.7845 0.00022234 0)
(63.7845 0.000232186 0)
(63.7846 0.00023251 0)
(63.7846 0.000224228 0)
(63.7847 0.000211407 0)
(63.7847 0.000187453 0)
(63.7847 0.000167289 0)
(63.7847 0.000174223 0)
(63.7847 0.000190114 0)
(63.7847 0.000188319 0)
(63.7848 0.000182155 0)
(63.7848 0.000185097 0)
(63.7848 0.000183138 0)
(63.7848 0.000175263 0)
(63.7848 0.000178473 0)
(63.7848 0.000187959 0)
(63.7848 0.000181608 0)
(63.7848 0.000161938 0)
(63.7848 0.000159349 0)
(63.7849 0.000187017 0)
(63.785 0.000222691 0)
(63.785 0.000245411 0)
(63.7851 0.000252834 0)
(63.7851 0.000241997 0)
(63.7852 0.000217489 0)
(63.7852 0.000203016 0)
(63.7853 0.000205672 0)
(63.7853 0.000201231 0)
(63.7853 0.000182136 0)
(63.7854 0.00017075 0)
(63.7854 0.000171885 0)
(63.7855 0.000169383 0)