/*--------------------------------*- C++ -*----------------------------------*\
| =========                 |                                                 |
| \\      /  F ield         | OpenFOAM: The Open Source CFD Toolbox           |
|  \\    /   O peration     | Version:  2406                                  |
|   \\  /    A nd           | Website:  www.openfoam.com                      |
|    \\/     M anipulation  |                                                 |
\*---------------------------------------------------------------------------*/
FoamFile
{
    version     2.0;
    format      ascii;
    arch        "LSB;label=32;scalar=64";
    class       surfaceScalarField;
    location    "0.4";
    object      phi;
}
// * * * * * * * * * * * * * * * * * * * * * * * * * * * * * * * * * * * * * //

dimensions      [0 3 -1 0 0 0 0];

oriented        oriented;

internalField   nonuniform List<scalar> 
4335
(
9.46867e-06
-1.13648e-11
9.46868e-06
-1.22489e-11
9.4687e-06
-1.17558e-11
9.46871e-06
-1.15966e-11
9.46872e-06
-8.40786e-12
9.46873e-06
-1.7839e-12
9.46873e-06
-2.61519e-12
9.46873e-06
-2.35322e-12
9.46873e-06
-3.6776e-12
9.46873e-06
-4.73029e-12
9.46873e-06
4.0926e-13
9.46874e-06
4.8615e-12
9.46873e-06
3.86138e-12
9.46873e-06
4.21639e-12
9.46872e-06
3.72402e-12
9.46871e-06
2.23941e-12
9.46871e-06
7.98077e-13
9.4687e-06
-1.28538e-14
9.4687e-06
7.3675e-13
9.4687e-06
2.91374e-12
9.4687e-06
4.11728e-12
9.4687e-06
3.40698e-12
9.4687e-06
2.17356e-12
9.4687e-06
1.46661e-12
9.4687e-06
1.78173e-12
9.4687e-06
2.78233e-12
9.4687e-06
3.2958e-12
9.4687e-06
2.22424e-12
9.4687e-06
8.35268e-13
9.4687e-06
5.36859e-13
9.4687e-06
9.4741e-13
9.4687e-06
1.39471e-12
9.4687e-06
1.58863e-12
9.4687e-06
1.30031e-12
9.46869e-06
1.00716e-12
9.46869e-06
1.03761e-12
9.46869e-06
5.44946e-13
9.46869e-06
-7.43573e-13
9.46869e-06
-1.73805e-12
9.46869e-06
-1.8462e-12
9.46869e-06
-1.20952e-12
9.46869e-06
-3.72756e-13
9.46869e-06
-3.23985e-13
9.46869e-06
-1.61194e-12
9.46869e-06
-2.92443e-12
9.46869e-06
-2.92987e-12
9.4687e-06
-1.83646e-12
9.4687e-06
-8.74407e-13
9.4687e-06
-7.49326e-13
9.4687e-06
-1.14448e-12
9.4687e-06
-9.3513e-13
9.4687e-06
3.07448e-13
9.46869e-06
1.5738e-12
9.46869e-06
1.56094e-12
9.46869e-06
2.84589e-13
9.46869e-06
-9.33554e-13
9.46869e-06
-9.87224e-13
9.46869e-06
-7.98493e-14
9.46869e-06
7.97342e-13
9.46869e-06
8.74945e-13
9.4687e-06
3.0926e-14
9.4687e-06
-1.01271e-12
9.4687e-06
-1.40966e-12
9.46871e-06
-8.11382e-13
9.46871e-06
1.59147e-13
9.46871e-06
2.56859e-13
9.46872e-06
-8.61289e-13
9.46872e-06
-1.97863e-12
9.46872e-06
-1.72971e-12
9.46871e-06
-1.26198e-14
9.46871e-06
1.69016e-12
9.46871e-06
1.79284e-12
9.46871e-06
4.52471e-13
9.46871e-06
-7.43683e-13
9.46871e-06
-5.29457e-13
9.46871e-06
4.7205e-13
9.46871e-06
8.94687e-13
9.46871e-06
3.34594e-13
9.46871e-06
-3.77266e-13
9.46871e-06
-6.04307e-14
9.46871e-06
1.04866e-12
9.46871e-06
1.5534e-12
9.46872e-06
6.12525e-13
9.46872e-06
-8.99873e-13
9.46872e-06
-1.66092e-12
9.46872e-06
-1.31598e-12
9.46872e-06
-5.64955e-13
9.46872e-06
-3.57815e-13
9.46872e-06
-7.87826e-13
9.46872e-06
-1.42423e-12
9.46872e-06
-1.76493e-12
9.46872e-06
-1.61918e-12
9.46872e-06
-1.19212e-12
9.46872e-06
-1.08506e-12
9.46872e-06
-1.50187e-12
9.46872e-06
-1.93064e-12
9.46872e-06
-1.49799e-12
9.46872e-06
1.6234e-13
9.46872e-06
2.0503e-12
9.46872e-06
2.83286e-12
9.46872e-06
2.05996e-12
9.46872e-06
8.39214e-13
9.46872e-06
8.41455e-13
9.46872e-06
2.31323e-12
9.46872e-06
3.74191e-12
9.46871e-06
3.39283e-12
9.46871e-06
1.57037e-12
9.46871e-06
2.1022e-13
9.46871e-06
7.25106e-13
9.46871e-06
2.08668e-12
9.46871e-06
2.13976e-12
9.46871e-06
2.79359e-13
9.46871e-06
-1.79962e-12
9.46871e-06
-2.28852e-12
9.46871e-06
-1.21736e-12
9.46871e-06
-1.86966e-13
9.46871e-06
-2.14723e-13
9.46871e-06
-5.44123e-13
9.46871e-06
-3.1575e-13
9.46871e-06
-1.43968e-13
9.46871e-06
-8.449e-13
9.46872e-06
-1.79116e-12
9.46872e-06
-1.69181e-12
9.46872e-06
-5.31342e-13
9.46872e-06
3.09295e-13
9.46872e-06
-1.51282e-13
9.46872e-06
-1.11984e-12
9.46871e-06
-1.20644e-12
9.46871e-06
-3.4079e-13
9.46871e-06
6.09537e-13
9.46871e-06
1.37428e-12
9.46871e-06
2.13581e-12
9.46871e-06
2.85207e-12
9.46871e-06
3.03681e-12
9.46871e-06
2.3211e-12
9.46871e-06
7.43729e-13
9.4687e-06
-3.74029e-13
9.4687e-06
2.62423e-13
9.4687e-06
1.80344e-12
9.4687e-06
2.49203e-12
9.4687e-06
1.54498e-12
9.4687e-06
-2.22669e-13
9.4687e-06
-1.24491e-13
9.4687e-06
2.0624e-12
9.4687e-06
3.30103e-12
9.4687e-06
2.40777e-12
9.4687e-06
8.50218e-13
9.46869e-06
1.01332e-12
9.46869e-06
4.21348e-12
6.05618e-12
2.58432e-05
-2.1935e-11
2.58432e-05
-2.817e-11
2.58432e-05
-2.53267e-11
2.58432e-05
-2.23792e-11
2.58432e-05
-2.09307e-11
2.58432e-05
-1.4909e-11
2.58432e-05
-1.23928e-11
2.58432e-05
-1.00902e-11
2.58432e-05
-2.03676e-12
2.58432e-05
3.68828e-12
2.58432e-05
2.66281e-12
2.58432e-05
4.53192e-12
2.58432e-05
4.7024e-12
2.58432e-05
4.12189e-12
2.58432e-05
1.64511e-12
2.58432e-05
-1.31585e-12
2.58432e-05
-9.80831e-13
2.58432e-05
2.08744e-12
2.58432e-05
4.65027e-12
2.58432e-05
5.41204e-12
2.58432e-05
5.17625e-12
2.58432e-05
4.95903e-12
2.58432e-05
5.64515e-12
2.58432e-05
6.26482e-12
2.58432e-05
5.36857e-12
2.58432e-05
3.48766e-12
2.58432e-05
2.35614e-12
2.58432e-05
2.15392e-12
2.58432e-05
2.19603e-12
2.58432e-05
2.63585e-12
2.58432e-05
3.54725e-12
2.58432e-05
4.74448e-12
2.58432e-05
5.71353e-12
2.58432e-05
5.25029e-12
2.58432e-05
3.17151e-12
2.58432e-05
1.24761e-12
2.58432e-05
5.85428e-13
2.58432e-05
3.92163e-13
2.58432e-05
-7.17325e-14
2.58432e-05
-7.81017e-13
2.58432e-05
-1.38838e-12
2.58432e-05
-1.45238e-12
2.58432e-05
-1.21766e-12
2.58432e-05
-1.55407e-12
2.58432e-05
-2.30846e-12
2.58432e-05
-2.53755e-12
2.58432e-05
-1.62661e-12
2.58432e-05
-3.17336e-13
2.58432e-05
2.22308e-13
2.58432e-05
-6.61743e-13
2.58432e-05
-2.13251e-12
2.58432e-05
-2.51679e-12
2.58432e-05
-1.11939e-12
2.58432e-05
1.04137e-12
2.58432e-05
2.36812e-12
2.58432e-05
2.26457e-12
2.58432e-05
1.56057e-12
2.58432e-05
1.07225e-12
2.58432e-05
8.97204e-13
2.58432e-05
6.89364e-13
2.58432e-05
4.09221e-14
2.58432e-05
-1.01767e-12
2.58432e-05
-1.9645e-12
2.58432e-05
-2.08871e-12
2.58432e-05
-1.09323e-12
2.58432e-05
2.69974e-13
2.58432e-05
6.55803e-13
2.58432e-05
-4.60051e-13
2.58432e-05
-2.06603e-12
2.58432e-05
-2.64224e-12
2.58432e-05
-1.63424e-12
2.58432e-05
-2.24589e-13
2.58432e-05
2.48939e-13
2.58432e-05
-4.43992e-13
2.58432e-05
-6.91896e-13
2.58432e-05
4.86259e-13
2.58432e-05
2.03335e-12
2.58432e-05
1.94662e-12
2.58432e-05
-3.24916e-13
2.58432e-05
-2.98798e-12
2.58432e-05
-3.72605e-12
2.58432e-05
-2.3492e-12
2.58432e-05
-5.93215e-13
2.58432e-05
-2.2546e-13
2.58432e-05
-1.19924e-12
2.58432e-05
-2.34768e-12
2.58432e-05
-2.85622e-12
2.58432e-05
-2.81685e-12
2.58432e-05
-2.75916e-12
2.58432e-05
-2.99492e-12
2.58432e-05
-3.33642e-12
2.58432e-05
-3.34387e-12
2.58432e-05
-2.61123e-12
2.58432e-05
-1.28638e-12
2.58432e-05
-2.17648e-13
2.58432e-05
-8.83088e-14
2.58432e-05
-5.85198e-13
2.58432e-05
-6.50803e-13
2.58432e-05
6.99529e-13
2.58432e-05
3.01613e-12
2.58432e-05
4.71949e-12
2.58432e-05
4.71122e-12
2.58432e-05
3.66719e-12
2.58432e-05
3.13535e-12
2.58432e-05
4.02493e-12
2.58432e-05
5.05573e-12
2.58432e-05
4.5187e-12
2.58432e-05
2.43881e-12
2.58432e-05
9.1501e-13
2.58432e-05
1.28738e-12
2.58432e-05
2.71967e-12
2.58432e-05
2.80595e-12
2.58432e-05
8.57987e-13
2.58432e-05
-1.59451e-12
2.58432e-05
-2.53693e-12
2.58432e-05
-1.9014e-12
2.58432e-05
-1.42726e-12
2.58432e-05
-1.99231e-12
2.58432e-05
-2.54633e-12
2.58432e-05
-2.19855e-12
2.58432e-05
-1.74983e-12
2.58432e-05
-2.36421e-12
2.58432e-05
-3.45206e-12
2.58432e-05
-3.49162e-12
2.58432e-05
-2.05313e-12
2.58432e-05
-4.97613e-13
2.58432e-05
-4.93127e-14
2.58432e-05
3.91182e-14
2.58432e-05
7.70517e-13
2.58432e-05
1.68337e-12
2.58432e-05
2.15119e-12
2.58432e-05
2.15242e-12
2.58432e-05
1.95325e-12
2.58432e-05
2.04055e-12
2.58432e-05
2.65539e-12
2.58432e-05
2.98728e-12
2.58432e-05
2.33117e-12
2.58432e-05
1.74881e-12
2.58432e-05
2.56918e-12
2.58432e-05
4.2765e-12
2.58432e-05
5.62975e-12
2.58432e-05
4.75589e-12
2.58432e-05
2.22799e-12
2.58432e-05
1.37989e-12
2.58432e-05
3.09352e-12
2.58432e-05
6.16318e-12
2.58432e-05
8.27621e-12
2.58432e-05
1.02716e-11
2.58432e-05
1.24572e-11
1.37945e-11
3.96693e-05
-2.77872e-11
3.96693e-05
-3.61648e-11
3.96693e-05
-3.23635e-11
3.96693e-05
-3.01977e-11
3.96693e-05
-2.78992e-11
3.96694e-05
-2.35706e-11
3.96693e-05
-1.3647e-11
3.96693e-05
-2.73885e-12
3.96693e-05
-6.30612e-13
3.96693e-05
5.43826e-13
3.96694e-05
3.59248e-12
3.96694e-05
4.45862e-12
3.96694e-05
3.12743e-12
3.96693e-05
2.44303e-12
3.96693e-05
3.27888e-12
3.96693e-05
3.69796e-12
3.96693e-05
3.72464e-12
3.96693e-05
3.99892e-12
3.96693e-05
4.61e-12
3.96693e-05
5.93623e-12
3.96693e-05
7.3e-12
3.96693e-05
7.38517e-12
3.96693e-05
6.66594e-12
3.96693e-05
6.04931e-12
3.96693e-05
5.21872e-12
3.96693e-05
3.89169e-12
3.96693e-05
2.94712e-12
3.96693e-05
3.16633e-12
3.96693e-05
4.10844e-12
3.96693e-05
5.11947e-12
3.96693e-05
5.72679e-12
3.96693e-05
5.94139e-12
3.96693e-05
6.04274e-12
3.96693e-05
5.43931e-12
3.96693e-05
3.15511e-12
3.96693e-05
1.0346e-13
3.96693e-05
-1.49365e-12
3.96693e-05
-1.121e-12
3.96693e-05
-2.62521e-13
3.96693e-05
-3.62186e-13
3.96693e-05
-1.93889e-12
3.96693e-05
-3.6443e-12
3.96693e-05
-4.07498e-12
3.96693e-05
-3.53643e-12
3.96693e-05
-3.55757e-12
3.96693e-05
-4.61219e-12
3.96693e-05
-5.80332e-12
3.96693e-05
-6.13491e-12
3.96693e-05
-5.33828e-12
3.96693e-05
-4.23714e-12
3.96693e-05
-3.95062e-12
3.96693e-05
-4.32759e-12
3.96693e-05
-4.12437e-12
3.96693e-05
-2.5741e-12
3.96693e-05
-4.24457e-13
3.96693e-05
1.12254e-12
3.96693e-05
1.43754e-12
3.96693e-05
9.31934e-13
3.96693e-05
4.13281e-13
3.96693e-05
3.9694e-13
3.96693e-05
6.58463e-13
3.96693e-05
5.88568e-13
3.96693e-05
-1.53093e-13
3.96693e-05
-1.13931e-12
3.96693e-05
-1.37932e-12
3.96693e-05
-2.66975e-13
3.96693e-05
1.57427e-12
3.96693e-05
2.5994e-12
3.96693e-05
1.91352e-12
3.96693e-05
4.40576e-13
3.96693e-05
-2.87475e-13
3.96693e-05
6.20455e-13
3.96693e-05
2.20874e-12
3.96693e-05
2.73652e-12
3.96693e-05
1.90967e-12
3.96693e-05
9.91069e-13
3.96693e-05
1.29002e-12
3.96693e-05
2.3838e-12
3.96693e-05
2.57083e-12
3.96693e-05
9.03321e-13
3.96693e-05
-1.44823e-12
3.96693e-05
-2.38899e-12
3.96693e-05
-1.20618e-12
3.96693e-05
6.9714e-13
3.96693e-05
1.6773e-12
3.96693e-05
1.37548e-12
3.96693e-05
5.80854e-13
3.96693e-05
1.0836e-13
3.96693e-05
1.20084e-13
3.96693e-05
1.92318e-13
3.96693e-05
-2.78571e-13
3.96693e-05
-1.18308e-12
3.96693e-05
-1.96823e-12
3.96693e-05
-1.70468e-12
3.96693e-05
-2.01285e-13
3.96693e-05
1.66919e-12
3.96693e-05
2.63177e-12
3.96693e-05
2.2544e-12
3.96693e-05
1.55496e-12
3.96693e-05
1.92147e-12
3.96693e-05
3.39387e-12
3.96693e-05
4.61192e-12
3.96693e-05
4.37282e-12
3.96693e-05
3.07397e-12
3.96693e-05
2.34973e-12
3.96693e-05
3.065e-12
3.96693e-05
4.35223e-12
3.96693e-05
4.36568e-12
3.96693e-05
2.65388e-12
3.96693e-05
7.83054e-13
3.96693e-05
4.2344e-13
3.96693e-05
1.15374e-12
3.96693e-05
1.13573e-12
3.96693e-05
-5.92537e-13
3.96693e-05
-2.89378e-12
3.96693e-05
-3.95211e-12
3.96693e-05
-3.68005e-12
3.96693e-05
-3.55739e-12
3.96693e-05
-4.12115e-12
3.96693e-05
-4.34736e-12
3.96693e-05
-3.52983e-12
3.96693e-05
-2.49925e-12
3.96693e-05
-2.49252e-12
3.96693e-05
-3.32859e-12
3.96693e-05
-3.56584e-12
3.96693e-05
-2.62967e-12
3.96693e-05
-1.48007e-12
3.96693e-05
-7.27038e-13
3.96693e-05
1.2736e-13
3.96693e-05
1.19427e-12
3.96693e-05
1.88317e-12
3.96693e-05
1.78215e-12
3.96693e-05
1.06972e-12
3.96693e-05
3.59298e-13
3.96693e-05
3.5233e-13
3.96693e-05
1.44021e-12
3.96693e-05
2.48654e-12
3.96693e-05
2.62035e-12
3.96693e-05
2.59924e-12
3.96693e-05
2.65862e-12
3.96693e-05
3.62453e-12
3.96693e-05
5.17021e-12
3.96693e-05
5.58542e-12
3.96693e-05
5.19837e-12
3.96693e-05
5.35384e-12
3.96693e-05
6.79564e-12
3.96693e-05
9.5542e-12
3.96693e-05
1.33298e-11
3.96693e-05
1.61305e-11
1.72703e-11
5.09608e-05
-1.77033e-11
5.09607e-05
-1.85192e-11
5.09607e-05
-2.82126e-11
5.09607e-05
-3.00864e-11
5.09607e-05
-2.13851e-11
5.09607e-05
-9.7379e-12
5.09607e-05
-7.65797e-12
5.09607e-05
-4.78144e-12
5.09607e-05
1.97451e-12
5.09607e-05
6.57517e-12
5.09607e-05
1.06391e-11
5.09607e-05
1.1095e-11
5.09607e-05
8.47813e-12
5.09607e-05
5.39788e-12
5.09607e-05
4.78323e-12
5.09607e-05
6.45803e-12
5.09607e-05
8.14896e-12
5.09607e-05
8.14161e-12
5.09607e-05
6.45772e-12
5.09607e-05
5.27292e-12
5.09607e-05
6.46947e-12
5.09607e-05
8.37864e-12
5.09607e-05
8.46337e-12
5.09607e-05
6.6093e-12
5.09607e-05
4.18839e-12
5.09607e-05
2.15681e-12
5.09607e-05
9.95993e-13
5.09607e-05
8.42984e-13
5.09607e-05
1.56247e-12
5.09607e-05
3.06527e-12
5.09607e-05
4.47236e-12
5.09607e-05
4.79276e-12
5.09607e-05
4.54693e-12
5.09607e-05
4.54312e-12
5.09607e-05
4.09875e-12
5.09606e-05
2.24992e-12
5.09606e-05
-1.96956e-13
5.09606e-05
-1.73679e-12
5.09607e-05
-1.79864e-12
5.09607e-05
-9.32643e-13
5.09607e-05
-7.07391e-13
5.09607e-05
-2.14243e-12
5.09607e-05
-4.17917e-12
5.09607e-05
-5.05798e-12
5.09607e-05
-4.82464e-12
5.09607e-05
-4.70618e-12
5.09607e-05
-5.63119e-12
5.09607e-05
-7.32915e-12
5.09607e-05
-8.42555e-12
5.09607e-05
-7.71369e-12
5.09607e-05
-5.51924e-12
5.09607e-05
-3.23376e-12
5.09607e-05
-1.65674e-12
5.09607e-05
-4.9891e-13
5.09607e-05
7.96539e-13
5.09607e-05
2.16739e-12
5.09607e-05
2.96753e-12
5.09607e-05
2.6678e-12
5.09607e-05
1.51513e-12
5.09607e-05
4.50023e-13
5.09607e-05
1.62871e-13
5.09607e-05
1.0042e-12
5.09607e-05
2.07388e-12
5.09607e-05
2.18042e-12
5.09607e-05
1.09126e-12
5.09607e-05
-9.56648e-14
5.09607e-05
1.11299e-13
5.09607e-05
1.94468e-12
5.09607e-05
3.86792e-12
5.09607e-05
4.32621e-12
5.09607e-05
3.32395e-12
5.09607e-05
2.42423e-12
5.09607e-05
3.04222e-12
5.09607e-05
4.5199e-12
5.09607e-05
5.06052e-12
5.09607e-05
3.52717e-12
5.09607e-05
7.05508e-13
5.09607e-05
-1.5183e-12
5.09607e-05
-2.19563e-12
5.09607e-05
-2.10634e-12
5.09607e-05
-2.42702e-12
5.09607e-05
-3.20172e-12
5.09607e-05
-3.33727e-12
5.09607e-05
-2.24855e-12
5.09607e-05
-5.55902e-13
5.09607e-05
6.48162e-13
5.09607e-05
8.38976e-13
5.09607e-05
2.50469e-13
5.09607e-05
-4.79185e-13
5.09607e-05
-7.06231e-13
5.09607e-05
-3.6363e-13
5.09607e-05
6.96962e-14
5.09607e-05
3.51058e-14
5.09607e-05
-3.11398e-13
5.09607e-05
-3.34607e-14
5.09607e-05
1.41662e-12
5.09607e-05
3.3389e-12
5.09607e-05
4.38918e-12
5.09607e-05
3.70977e-12
5.09607e-05
2.06844e-12
5.09607e-05
1.05359e-12
5.09607e-05
1.3158e-12
5.09607e-05
1.93509e-12
5.09607e-05
1.75335e-12
5.09607e-05
8.17073e-13
5.09607e-05
4.53439e-13
5.09607e-05
1.7791e-12
5.09607e-05
3.98386e-12
5.09607e-05
4.90365e-12
5.09607e-05
3.42682e-12
5.09607e-05
8.72044e-13
5.09607e-05
-7.53509e-13
5.09607e-05
-9.64524e-13
5.09607e-05
-8.82191e-13
5.09607e-05
-1.58848e-12
5.09607e-05
-2.69083e-12
5.09607e-05
-3.0452e-12
5.09607e-05
-2.82212e-12
5.09607e-05
-2.98554e-12
5.09607e-05
-3.6647e-12
5.09607e-05
-3.95767e-12
5.09607e-05
-3.22705e-12
5.09607e-05
-2.09357e-12
5.09607e-05
-1.54558e-12
5.09607e-05
-1.39974e-12
5.09607e-05
-8.42388e-13
5.09607e-05
-3.83251e-14
5.09607e-05
3.2904e-13
5.09607e-05
2.68104e-13
5.09607e-05
1.3324e-13
5.09607e-05
4.50255e-14
5.09607e-05
-3.97289e-14
5.09607e-05
-3.44876e-13
5.09607e-05
-8.4711e-13
5.09607e-05
-1.26303e-12
5.09607e-05
-7.45582e-13
5.09607e-05
9.05239e-13
5.09607e-05
2.36547e-12
5.09607e-05
3.12704e-12
5.09607e-05
3.15192e-12
5.09607e-05
2.68079e-12
5.09607e-05
2.68398e-12
5.09607e-05
2.9371e-12
5.09607e-05
3.44435e-12
5.09607e-05
5.47617e-12
5.09607e-05
7.59424e-12
5.09607e-05
1.07804e-11
5.09607e-05
1.34333e-11
5.09607e-05
1.51123e-11
1.35005e-11
5.97294e-05
-1.0964e-11
5.97294e-05
-1.35946e-11
5.97294e-05
-7.82169e-12
5.97294e-05
-2.33854e-12
5.97294e-05
-1.86625e-12
5.97294e-05
6.77821e-13
5.97293e-05
6.36284e-12
5.97293e-05
1.35999e-11
5.97293e-05
1.61389e-11
5.97293e-05
1.68586e-11
5.97293e-05
1.63822e-11
5.97293e-05
1.50747e-11
5.97293e-05
1.35679e-11
5.97293e-05
1.11307e-11
5.97293e-05
9.05739e-12
5.97293e-05
8.38719e-12
5.97293e-05
8.62264e-12
5.97293e-05
8.99409e-12
5.97293e-05
8.32464e-12
5.97293e-05
6.94032e-12
5.97293e-05
6.96389e-12
5.97293e-05
8.05334e-12
5.97293e-05
8.17076e-12
5.97293e-05
7.20795e-12
5.97293e-05
6.45427e-12
5.97293e-05
6.32139e-12
5.97293e-05
6.45717e-12
5.97293e-05
6.2414e-12
5.97293e-05
5.32992e-12
5.97293e-05
4.8802e-12
5.97293e-05
5.70476e-12
5.97293e-05
6.25261e-12
5.97293e-05
5.16333e-12
5.97293e-05
3.46252e-12
5.97293e-05
2.74558e-12
5.97293e-05
2.88625e-12
5.97293e-05
2.81586e-12
5.97293e-05
1.96445e-12
5.97293e-05
8.3498e-13
5.97293e-05
4.97198e-13
5.97293e-05
1.18883e-12
5.97293e-05
1.49708e-12
5.97293e-05
1.4661e-13
5.97293e-05
-2.36392e-12
5.97293e-05
-4.69782e-12
5.97293e-05
-5.94166e-12
5.97293e-05
-6.26186e-12
5.97293e-05
-6.57537e-12
5.97293e-05
-7.28923e-12
5.97293e-05
-7.66411e-12
5.97293e-05
-6.92741e-12
5.97293e-05
-5.31723e-12
5.97293e-05
-3.72723e-12
5.97293e-05
-2.79336e-12
5.97293e-05
-2.24305e-12
5.97293e-05
-1.40192e-12
5.97293e-05
-5.5454e-14
5.97293e-05
1.36151e-12
5.97293e-05
2.0293e-12
5.97293e-05
1.60038e-12
5.97293e-05
4.47698e-13
5.97293e-05
-3.25392e-13
5.97293e-05
1.12982e-13
5.97293e-05
1.3299e-12
5.97293e-05
1.95747e-12
5.97293e-05
1.16547e-12
5.97293e-05
-3.42974e-13
5.97293e-05
-9.68935e-13
5.97293e-05
8.63796e-14
5.97293e-05
1.87037e-12
5.97293e-05
2.5786e-12
5.97293e-05
1.50682e-12
5.97293e-05
-1.74937e-13
5.97293e-05
-9.44378e-13
5.97293e-05
-5.68826e-13
5.97293e-05
-2.40729e-13
5.97293e-05
-1.11702e-12
5.97293e-05
-2.92419e-12
5.97293e-05
-4.14364e-12
5.97293e-05
-3.75675e-12
5.97293e-05
-2.27825e-12
5.97293e-05
-9.20594e-13
5.97293e-05
-3.10789e-13
5.97293e-05
-2.38129e-13
5.97293e-05
-1.39056e-13
5.97293e-05
2.67175e-13
5.97293e-05
8.69181e-13
5.97293e-05
1.29876e-12
5.97293e-05
1.14137e-12
5.97293e-05
4.24114e-13
5.97293e-05
-2.12676e-13
5.97293e-05
-1.49148e-13
5.97293e-05
4.8058e-13
5.97293e-05
9.27765e-13
5.97293e-05
7.82839e-13
5.97293e-05
4.58092e-13
5.97293e-05
7.75612e-13
5.97293e-05
1.78421e-12
5.97293e-05
2.5649e-12
5.97293e-05
2.27353e-12
5.97293e-05
1.17591e-12
5.97293e-05
4.40145e-13
5.97293e-05
7.65639e-13
5.97293e-05
1.67163e-12
5.97293e-05
2.03451e-12
5.97293e-05
1.47821e-12
5.97293e-05
9.65789e-13
5.97293e-05
1.69261e-12
5.97293e-05
3.2839e-12
5.97293e-05
3.90674e-12
5.97293e-05
2.55446e-12
5.97293e-05
2.12697e-13
5.97293e-05
-1.38224e-12
5.97293e-05
-1.48161e-12
5.97293e-05
-8.93145e-13
5.97293e-05
-5.89038e-13
5.97293e-05
-4.01785e-13
5.97293e-05
1.61863e-13
5.97293e-05
7.3858e-13
5.97293e-05
7.41244e-13
5.97293e-05
1.96082e-13
5.97293e-05
-1.81542e-13
5.97293e-05
6.6058e-14
5.97293e-05
2.98077e-13
5.97293e-05
-4.27301e-15
5.97293e-05
-1.44762e-13
5.97293e-05
1.82149e-13
5.97293e-05
3.85574e-13
5.97293e-05
2.91094e-13
5.97293e-05
6.08456e-14
5.97293e-05
-1.41643e-13
5.97293e-05
-4.15196e-15
5.97293e-05
4.4202e-13
5.97293e-05
9.06125e-13
5.97293e-05
9.13116e-13
5.97293e-05
7.09824e-13
5.97293e-05
1.62479e-12
5.97293e-05
3.36771e-12
5.97293e-05
4.76339e-12
5.97293e-05
5.74319e-12
5.97293e-05
6.41258e-12
5.97293e-05
7.28186e-12
5.97293e-05
8.15848e-12
5.97293e-05
8.03107e-12
5.97293e-05
8.38273e-12
5.97293e-05
9.7599e-12
5.97293e-05
1.29598e-11
5.97293e-05
1.49121e-11
5.97293e-05
1.67204e-11
1.57595e-11
6.59853e-05
8.41987e-12
6.59853e-05
7.56398e-12
6.59853e-05
8.63653e-12
6.59852e-05
1.24345e-11
6.59852e-05
1.94454e-11
6.59852e-05
2.43229e-11
6.59852e-05
2.3437e-11
6.59852e-05
2.58532e-11
6.59852e-05
2.58069e-11
6.59852e-05
2.49586e-11
6.59851e-05
2.34643e-11
6.59851e-05
2.11277e-11
6.59851e-05
1.96298e-11
6.59851e-05
1.80968e-11
6.59851e-05
1.57423e-11
6.59851e-05
1.31096e-11
6.59851e-05
1.03345e-11
6.59851e-05
8.73295e-12
6.59851e-05
8.95385e-12
6.59851e-05
9.02126e-12
6.59851e-05
8.05627e-12
6.59851e-05
6.83318e-12
6.59851e-05
5.55345e-12
6.59851e-05
4.36425e-12
6.59851e-05
3.70327e-12
6.59851e-05
3.2703e-12
6.59851e-05
3.13481e-12
6.59851e-05
3.79008e-12
6.59851e-05
4.57373e-12
6.59851e-05
4.86399e-12
6.59851e-05
5.28663e-12
6.59851e-05
5.88821e-12
6.59851e-05
5.59622e-12
6.59851e-05
4.3037e-12
6.59851e-05
3.20523e-12
6.59851e-05
3.15624e-12
6.59851e-05
3.95069e-12
6.59851e-05
4.52387e-12
6.59851e-05
3.83754e-12
6.59851e-05
2.27132e-12
6.59851e-05
1.02113e-12
6.59851e-05
4.71405e-13
6.59851e-05
-2.07132e-13
6.59851e-05
-1.5013e-12
6.59851e-05
-3.37417e-12
6.59851e-05
-5.18276e-12
6.59851e-05
-6.13973e-12
6.59851e-05
-6.18161e-12
6.59851e-05
-5.85806e-12
6.59851e-05
-5.47069e-12
6.59851e-05
-4.85143e-12
6.59851e-05
-3.97473e-12
6.59851e-05
-3.0504e-12
6.59851e-05
-2.23551e-12
6.59851e-05
-1.64461e-12
6.59851e-05
-1.24442e-12
6.59851e-05
-8.21851e-13
6.59851e-05
-1.82843e-13
6.59851e-05
6.16992e-13
6.59851e-05
1.21083e-12
6.59851e-05
1.1074e-12
6.59851e-05
1.81906e-13
6.59851e-05
-9.01127e-13
6.59851e-05
-1.09257e-12
6.59851e-05
-1.57298e-13
6.59851e-05
1.01436e-12
6.59851e-05
1.38848e-12
6.59851e-05
8.36466e-13
6.59851e-05
1.60895e-13
6.59851e-05
2.17152e-13
6.59851e-05
8.349e-13
6.59851e-05
9.69382e-13
6.59851e-05
-1.20372e-13
6.59851e-05
-1.99128e-12
6.59851e-05
-3.60476e-12
6.59851e-05
-4.43407e-12
6.59851e-05
-4.86943e-12
6.59851e-05
-5.6107e-12
6.59851e-05
-6.55048e-12
6.59851e-05
-6.84911e-12
6.59851e-05
-6.10025e-12
6.59851e-05
-4.75856e-12
6.59851e-05
-3.51921e-12
6.59851e-05
-2.71367e-12
6.59851e-05
-2.22213e-12
6.59851e-05
-1.75881e-12
6.59851e-05
-1.00554e-12
6.59851e-05
1.07893e-13
6.59851e-05
1.28845e-12
6.59851e-05
1.91162e-12
6.59851e-05
1.81968e-12
6.59851e-05
1.62983e-12
6.59851e-05
1.97264e-12
6.59851e-05
2.95573e-12
6.59851e-05
3.75094e-12
6.59851e-05
3.55143e-12
6.59851e-05
2.68277e-12
6.59851e-05
2.00737e-12
6.59851e-05
1.92358e-12
6.59851e-05
1.9884e-12
6.59851e-05
1.41602e-12
6.59851e-05
2.2913e-13
6.59851e-05
-6.6036e-13
6.59851e-05
-4.28224e-13
6.59851e-05
7.8576e-13
6.59851e-05
1.85862e-12
6.59851e-05
1.86855e-12
6.59851e-05
1.32743e-12
6.59851e-05
1.43226e-12
6.59851e-05
2.30803e-12
6.59851e-05
2.98988e-12
6.59851e-05
2.80769e-12
6.59851e-05
2.10611e-12
6.59851e-05
1.79946e-12
6.59851e-05
2.04575e-12
6.59851e-05
2.12633e-12
6.59851e-05
1.89343e-12
6.59851e-05
1.98315e-12
6.59851e-05
2.58069e-12
6.59851e-05
3.19181e-12
6.59851e-05
3.20756e-12
6.59851e-05
2.71777e-12
6.59851e-05
2.61849e-12
6.59851e-05
3.09264e-12
6.59851e-05
2.99598e-12
6.59851e-05
2.16256e-12
6.59851e-05
1.26784e-12
6.59851e-05
6.0549e-13
6.59851e-05
1.87833e-13
6.59851e-05
-1.01321e-13
6.59851e-05
-5.76722e-13
6.59851e-05
-1.10548e-12
6.59851e-05
-1.27201e-12
6.59851e-05
-6.1198e-13
6.59851e-05
6.27107e-13
6.59851e-05
1.09517e-12
6.59851e-05
1.08467e-12
6.59851e-05
1.82811e-12
6.59851e-05
3.21976e-12
6.59851e-05
4.91767e-12
6.59851e-05
5.76596e-12
6.59851e-05
5.45194e-12
6.59851e-05
5.98724e-12
6.59851e-05
8.31446e-12
6.59851e-05
9.43288e-12
6.59851e-05
1.08969e-11
6.59851e-05
1.22089e-11
6.59852e-05
1.24804e-11
6.59852e-05
1.08317e-11
1.05359e-11
6.97358e-05
2.37846e-11
6.97358e-05
3.00902e-11
6.97357e-05
3.78459e-11
6.97357e-05
4.16842e-11
6.97357e-05
4.34113e-11
6.97357e-05
4.37209e-11
6.97357e-05
4.38934e-11
6.97356e-05
4.22901e-11
6.97356e-05
3.97883e-11
6.97356e-05
3.5884e-11
6.97356e-05
3.22821e-11
6.97356e-05
2.93865e-11
6.97356e-05
2.63297e-11
6.97356e-05
2.33453e-11
6.97356e-05
1.97431e-11
6.97356e-05
1.58015e-11
6.97356e-05
1.20395e-11
6.97356e-05
9.12134e-12
6.97356e-05
8.02752e-12
6.97356e-05
7.78426e-12
6.97356e-05
6.97303e-12
6.97356e-05
5.92844e-12
6.97356e-05
5.18375e-12
6.97356e-05
4.6329e-12
6.97356e-05
4.41164e-12
6.97356e-05
4.12219e-12
6.97356e-05
3.45526e-12
6.97356e-05
3.2929e-12
6.97356e-05
3.69674e-12
6.97356e-05
3.82357e-12
6.97356e-05
3.78186e-12
6.97356e-05
4.04082e-12
6.97356e-05
4.08967e-12
6.97356e-05
3.61283e-12
6.97356e-05
3.00346e-12
6.97356e-05
2.63991e-12
6.97356e-05
2.71686e-12
6.97356e-05
3.15348e-12
6.97356e-05
3.08894e-12
6.97356e-05
1.96093e-12
6.97356e-05
2.55926e-13
6.97356e-05
-1.12664e-12
6.97356e-05
-1.98037e-12
6.97356e-05
-2.67466e-12
6.97356e-05
-3.63022e-12
6.97356e-05
-4.93379e-12
6.97356e-05
-6.05995e-12
6.97356e-05
-6.43359e-12
6.97356e-05
-6.1735e-12
6.97356e-05
-5.78366e-12
6.97356e-05
-5.43647e-12
6.97356e-05
-5.03241e-12
6.97356e-05
-4.48096e-12
6.97356e-05
-3.74843e-12
6.97356e-05
-2.7715e-12
6.97356e-05
-1.68054e-12
6.97356e-05
-7.72544e-13
6.97356e-05
-2.95472e-13
6.97356e-05
-1.48014e-13
6.97356e-05
4.44563e-14
6.97356e-05
5.76685e-13
6.97356e-05
1.10874e-12
6.97356e-05
1.0759e-12
6.97356e-05
5.65857e-13
6.97356e-05
2.27022e-13
6.97356e-05
4.12985e-13
6.97356e-05
7.73403e-13
6.97356e-05
6.95118e-13
6.97356e-05
6.81727e-14
6.97356e-05
-6.41796e-13
6.97356e-05
-9.77862e-13
6.97356e-05
-1.08947e-12
6.97356e-05
-1.54877e-12
6.97356e-05
-2.54062e-12
6.97356e-05
-3.64006e-12
6.97356e-05
-4.2095e-12
6.97356e-05
-4.07781e-12
6.97356e-05
-3.66212e-12
6.97356e-05
-3.42045e-12
6.97356e-05
-3.34528e-12
6.97356e-05
-3.1399e-12
6.97356e-05
-2.73077e-12
6.97356e-05
-2.27175e-12
6.97356e-05
-1.73664e-12
6.97356e-05
-8.27863e-13
6.97356e-05
4.85009e-13
6.97356e-05
1.84989e-12
6.97356e-05
2.91599e-12
6.97356e-05
3.63447e-12
6.97356e-05
3.98979e-12
6.97356e-05
3.85755e-12
6.97356e-05
3.31912e-12
6.97356e-05
2.76405e-12
6.97356e-05
2.76213e-12
6.97356e-05
3.17086e-12
6.97356e-05
3.33741e-12
6.97356e-05
2.88318e-12
6.97356e-05
2.03902e-12
6.97356e-05
1.30101e-12
6.97356e-05
9.33302e-13
6.97356e-05
6.3862e-13
6.97356e-05
-1.22965e-13
6.97356e-05
-1.17059e-12
6.97356e-05
-1.79509e-12
6.97356e-05
-1.42408e-12
6.97356e-05
-2.46267e-13
6.97356e-05
6.59682e-13
6.97356e-05
5.79082e-13
6.97356e-05
9.10505e-14
6.97356e-05
1.47253e-13
6.97356e-05
9.09672e-13
6.97356e-05
1.76117e-12
6.97356e-05
2.21216e-12
6.97356e-05
2.68083e-12
6.97356e-05
3.63471e-12
6.97356e-05
4.51827e-12
6.97356e-05
4.61164e-12
6.97356e-05
4.218e-12
6.97356e-05
4.00402e-12
6.97356e-05
4.15359e-12
6.97356e-05
4.17704e-12
6.97356e-05
3.36618e-12
6.97356e-05
2.13968e-12
6.97356e-05
1.60172e-12
6.97356e-05
1.65135e-12
6.97356e-05
1.48351e-12
6.97356e-05
8.99358e-13
6.97356e-05
1.26926e-13
6.97356e-05
-4.55928e-13
6.97356e-05
-5.73366e-13
6.97356e-05
-7.40666e-13
6.97356e-05
-1.31405e-12
6.97356e-05
-2.142e-12
6.97356e-05
-2.68449e-12
6.97356e-05
-1.85991e-12
6.97356e-05
-1.42329e-13
6.97356e-05
1.08014e-12
6.97356e-05
1.92162e-12
6.97356e-05
2.84781e-12
6.97356e-05
4.37515e-12
6.97356e-05
6.54928e-12
6.97356e-05
7.42201e-12
6.97356e-05
6.3766e-12
6.97356e-05
7.10262e-12
6.97356e-05
8.27006e-12
6.97356e-05
9.43146e-12
6.97356e-05
9.12129e-12
6.97356e-05
8.08464e-12
6.97356e-05
7.11492e-12
6.71974e-12
7.09855e-05
4.47215e-11
7.09854e-05
5.07226e-11
7.09854e-05
5.61227e-11
7.09854e-05
6.19667e-11
7.09854e-05
6.7253e-11
7.09854e-05
6.38944e-11
7.09853e-05
6.09005e-11
7.09853e-05
5.50659e-11
7.09853e-05
4.9773e-11
7.09853e-05
4.49707e-11
7.09853e-05
4.02861e-11
7.09853e-05
3.61741e-11
7.09853e-05
3.19655e-11
7.09853e-05
2.66118e-11
7.09853e-05
2.04321e-11
7.09853e-05
1.53784e-11
7.09853e-05
1.26026e-11
7.09853e-05
1.1219e-11
7.09853e-05
1.03869e-11
7.09853e-05
9.42969e-12
7.09853e-05
7.78671e-12
7.09853e-05
6.31475e-12
7.09853e-05
5.85034e-12
7.09853e-05
5.71593e-12
7.09853e-05
5.51325e-12
7.09853e-05
5.30149e-12
7.09853e-05
4.71181e-12
7.09853e-05
4.27281e-12
7.09853e-05
4.75916e-12
7.09853e-05
5.25423e-12
7.09853e-05
4.90298e-12
7.09853e-05
4.31936e-12
7.09853e-05
3.89442e-12
7.09853e-05
3.23329e-12
7.09853e-05
2.39371e-12
7.09853e-05
1.60477e-12
7.09853e-05
1.02342e-12
7.09853e-05
7.93639e-13
7.09853e-05
7.13966e-13
7.09853e-05
2.29333e-13
7.09853e-05
-7.49628e-13
7.09853e-05
-1.60695e-12
7.09853e-05
-1.87071e-12
7.09853e-05
-1.75846e-12
7.09853e-05
-1.97564e-12
7.09853e-05
-2.9818e-12
7.09853e-05
-4.30204e-12
7.09853e-05
-4.9486e-12
7.09853e-05
-4.53007e-12
7.09853e-05
-3.78928e-12
7.09853e-05
-3.53047e-12
7.09853e-05
-3.7728e-12
7.09853e-05
-3.93506e-12
7.09853e-05
-3.5404e-12
7.09853e-05
-2.61924e-12
7.09853e-05
-1.55113e-12
7.09853e-05
-7.45216e-13
7.09853e-05
-2.80198e-13
7.09853e-05
-9.65532e-14
7.09853e-05
-8.91268e-15
7.09853e-05
2.54748e-13
7.09853e-05
6.75417e-13
7.09853e-05
7.68552e-13
7.09853e-05
1.46981e-13
7.09853e-05
-9.36563e-13
7.09853e-05
-1.78532e-12
7.09853e-05
-2.03441e-12
7.09853e-05
-2.02925e-12
7.09853e-05
-2.3515e-12
7.09853e-05
-3.03124e-12
7.09853e-05
-3.41041e-12
7.09853e-05
-3.22839e-12
7.09853e-05
-2.91743e-12
7.09853e-05
-3.1151e-12
7.09853e-05
-3.95901e-12
7.09853e-05
-4.6572e-12
7.09853e-05
-4.38108e-12
7.09853e-05
-3.26288e-12
7.09853e-05
-2.14831e-12
7.09853e-05
-1.7286e-12
7.09853e-05
-1.77988e-12
7.09853e-05
-1.64994e-12
7.09853e-05
-1.07415e-12
7.09853e-05
-3.6105e-13
7.09853e-05
2.15285e-13
7.09853e-05
7.29646e-13
7.09853e-05
1.29866e-12
7.09853e-05
1.86304e-12
7.09853e-05
2.41128e-12
7.09853e-05
3.02642e-12
7.09853e-05
3.6199e-12
7.09853e-05
3.87778e-12
7.09853e-05
3.72953e-12
7.09853e-05
3.56958e-12
7.09853e-05
3.70203e-12
7.09853e-05
3.91378e-12
7.09853e-05
3.61447e-12
7.09853e-05
2.51739e-12
7.09853e-05
8.99712e-13
7.09853e-05
-5.10748e-13
7.09853e-05
-1.25996e-12
7.09853e-05
-1.60566e-12
7.09853e-05
-2.08424e-12
7.09853e-05
-2.72104e-12
7.09853e-05
-3.00211e-12
7.09853e-05
-2.39455e-12
7.09853e-05
-1.2178e-12
7.09853e-05
-5.03466e-13
7.09853e-05
-5.57534e-13
7.09853e-05
-5.37362e-13
7.09853e-05
3.57017e-13
7.09853e-05
1.93783e-12
7.09853e-05
3.21892e-12
7.09853e-05
3.70038e-12
7.09853e-05
4.1649e-12
7.09853e-05
5.13284e-12
7.09853e-05
5.9216e-12
7.09853e-05
5.83215e-12
7.09853e-05
4.96529e-12
7.09853e-05
3.96521e-12
7.09853e-05
3.62075e-12
7.09853e-05
3.78835e-12
7.09853e-05
3.66537e-12
7.09853e-05
3.23577e-12
7.09853e-05
2.81304e-12
7.09853e-05
2.19887e-12
7.09853e-05
1.53365e-12
7.09853e-05
9.99176e-13
7.09853e-05
4.57805e-13
7.09853e-05
2.75334e-13
7.09853e-05
3.96299e-13
7.09853e-05
4.43916e-13
7.09853e-05
4.12669e-13
7.09853e-05
1.37736e-13
7.09853e-05
1.72644e-13
7.09853e-05
1.47587e-12
7.09853e-05
3.22792e-12
7.09853e-05
3.92758e-12
7.09853e-05
3.86683e-12
7.09853e-05
3.59002e-12
7.09853e-05
4.28752e-12
7.09853e-05
5.59106e-12
7.09853e-05
6.70476e-12
7.09853e-05
6.38941e-12
7.09853e-05
6.20009e-12
7.09853e-05
7.04704e-12
7.09853e-05
7.70065e-12
7.09853e-05
6.71076e-12
7.09853e-05
2.08888e-12
-2.17619e-12
6.97359e-05
5.47834e-11
6.97358e-05
6.51465e-11
6.97358e-05
7.6042e-11
6.97358e-05
8.20353e-11