/*--------------------------------*- C++ -*----------------------------------*\
| =========                 |                                                 |
| \\      /  F ield         | OpenFOAM: The Open Source CFD Toolbox           |
|  \\    /   O peration     | Version:  2406                                  |
|   \\  /    A nd           | Website:  www.openfoam.com                      |
|    \\/     M anipulation  |                                                 |
\*---------------------------------------------------------------------------*/
FoamFile
{
    version     2.0;
    format      ascii;
    arch        "LSB;label=32;scalar=64";
    class       volVectorField;
    location    "0.4";
    object      U;
}
// * * * * * * * * * * * * * * * * * * * * * * * * * * * * * * * * * * * * * //

dimensions      [0 1 -1 0 0 0 0];

internalField   nonuniform List<vector> 
2250
(
(0.14203 -8.23239e-08 0)
(0.14203 -9.553e-08 0)
(0.14203 -8.93272e-08 0)
(0.142031 -8.91415e-08 0)
(0.142031 -5.70314e-08 0)
(0.142031 -1.12081e-08 0)
(0.142031 -1.72881e-08 0)
(0.142031 -1.72605e-08 0)
(0.142031 -2.55875e-08 0)
(0.142031 -3.226e-08 0)
(0.142031 7.99753e-09 0)
(0.142031 4.69835e-08 0)
(0.142031 3.8168e-08 0)
(0.142031 3.16673e-08 0)
(0.142031 2.19631e-08 0)
(0.142031 1.29299e-08 0)
(0.142031 7.91853e-09 0)
(0.142031 5.37515e-09 0)
(0.142031 9.62628e-09 0)
(0.142031 1.94477e-08 0)
(0.142031 2.42276e-08 0)
(0.142031 2.22617e-08 0)
(0.14203 1.74902e-08 0)
(0.14203 1.38374e-08 0)
(0.14203 1.45958e-08 0)
(0.142031 1.87727e-08 0)
(0.142031 1.93893e-08 0)
(0.142031 1.21757e-08 0)
(0.142031 3.56518e-09 0)
(0.14203 2.28897e-09 0)
(0.14203 7.36839e-09 0)
(0.14203 1.346e-08 0)
(0.14203 1.44374e-08 0)
(0.14203 8.49933e-09 0)
(0.14203 3.23485e-09 0)
(0.14203 3.02469e-09 0)
(0.14203 1.95915e-09 0)
(0.14203 -4.23593e-09 0)
(0.14203 -1.10955e-08 0)
(0.14203 -1.24523e-08 0)
(0.14203 -6.22535e-09 0)
(0.14203 3.18797e-09 0)
(0.14203 4.81819e-09 0)
(0.14203 -5.96393e-09 0)
(0.14203 -1.8669e-08 0)
(0.14203 -2.131e-08 0)
(0.14203 -1.35802e-08 0)
(0.14203 -4.45089e-09 0)
(0.14203 -2.05519e-09 0)
(0.14203 -4.75209e-09 0)
(0.14203 -2.53652e-09 0)
(0.14203 8.51204e-09 0)
(0.14203 1.94741e-08 0)
(0.14203 1.90701e-08 0)
(0.14203 7.31905e-09 0)
(0.14203 -4.82427e-09 0)
(0.14203 -8.14328e-09 0)
(0.14203 -3.6235e-09 0)
(0.14203 1.38011e-09 0)
(0.14203 9.26427e-10 0)
(0.14203 -5.98029e-09 0)
(0.14203 -1.44676e-08 0)
(0.142031 -1.67605e-08 0)
(0.142031 -1.04702e-08 0)
(0.142031 -2.1057e-09 0)
(0.142031 -1.47527e-09 0)
(0.142031 -1.07551e-08 0)
(0.142031 -1.97217e-08 0)
(0.142031 -1.5775e-08 0)
(0.142031 7.2692e-10 0)
(0.142031 1.5835e-08 0)
(0.142031 1.59195e-08 0)
(0.142031 3.00103e-09 0)
(0.142031 -8.1695e-09 0)
(0.142031 -6.5448e-09 0)
(0.142031 3.38866e-09 0)
(0.142031 7.84161e-09 0)
(0.142031 1.24054e-09 0)
(0.142031 -7.29109e-09 0)
(0.142031 -6.37389e-09 0)
(0.142031 3.45586e-09 0)
(0.142031 9.90301e-09 0)
(0.142031 4.96256e-09 0)
(0.142031 -5.90157e-09 0)
(0.142031 -1.15424e-08 0)
(0.142031 -8.29294e-09 0)
(0.142031 -2.23966e-09 0)
(0.142031 -1.03341e-09 0)
(0.142031 -6.17327e-09 0)
(0.142031 -1.30632e-08 0)
(0.142031 -1.6477e-08 0)
(0.142031 -1.43114e-08 0)
(0.142031 -9.01081e-09 0)
(0.142031 -5.77365e-09 0)
(0.142031 -7.81712e-09 0)
(0.142031 -1.20082e-08 0)
(0.142031 -1.0758e-08 0)
(0.142031 -6.44352e-10 0)
(0.142031 1.27911e-08 0)
(0.142031 1.87497e-08 0)
(0.142031 1.29777e-08 0)
(0.142031 3.96278e-09 0)
(0.142031 5.18074e-09 0)
(0.142031 1.89149e-08 0)
(0.142031 3.21975e-08 0)
(0.142031 3.02517e-08 0)
(0.142031 1.45277e-08 0)
(0.142031 2.38851e-09 0)
(0.142031 6.14633e-09 0)
(0.142031 1.78921e-08 0)
(0.142031 1.89409e-08 0)
(0.142031 3.15436e-09 0)
(0.142031 -1.55666e-08 0)
(0.142031 -2.06493e-08 0)
(0.142031 -1.15723e-08 0)
(0.142031 -2.38297e-09 0)
(0.142031 -2.11811e-09 0)
(0.142031 -4.90808e-09 0)
(0.142031 -3.523e-09 0)
(0.142031 -1.85812e-09 0)
(0.142031 -6.67658e-09 0)
(0.142031 -1.37756e-08 0)
(0.142031 -1.29345e-08 0)
(0.142031 -3.64591e-09 0)
(0.142031 2.65954e-09 0)
(0.142031 -1.68004e-09 0)
(0.142031 -1.03478e-08 0)
(0.142031 -1.21971e-08 0)
(0.142031 -5.75867e-09 0)
(0.142031 2.40173e-09 0)
(0.142031 8.73144e-09 0)
(0.142031 1.44228e-08 0)
(0.142031 2.0108e-08 0)
(0.142031 2.3307e-08 0)
(0.142031 1.92952e-08 0)
(0.142031 8.67426e-09 0)
(0.142031 1.8642e-09 0)
(0.142031 7.60961e-09 0)
(0.142031 2.01446e-08 0)
(0.142031 2.59887e-08 0)
(0.142031 1.69052e-08 0)
(0.142031 7.55e-10 0)
(0.142031 2.94613e-10 0)
(0.142031 1.63333e-08 0)
(0.14203 2.58428e-08 0)
(0.14203 1.9824e-08 0)
(0.14203 7.40864e-09 0)
(0.14203 9.7939e-09 0)
(0.14203 3.3761e-08 0)
(0.14203 4.71831e-08 0)
(0.387647 -2.65938e-07 0)
(0.387647 -3.18341e-07 0)
(0.387648 -2.88453e-07 0)
(0.387648 -2.6857e-07 0)
(0.387648 -2.32716e-07 0)
(0.387648 -1.30201e-07 0)
(0.387648 -1.16636e-07 0)
(0.387648 -9.66758e-08 0)
(0.387648 -4.60941e-08 0)
(0.387648 -9.37541e-09 0)
(0.387648 2.76749e-08 0)
(0.387649 7.9541e-08 0)
(0.387649 7.34834e-08 0)
(0.387648 6.76123e-08 0)
(0.387648 3.93634e-08 0)
(0.387648 5.05004e-09 0)
(0.387648 6.31242e-10 0)
(0.387648 1.81784e-08 0)
(0.387648 4.19248e-08 0)
(0.387648 6.39735e-08 0)
(0.387648 7.05597e-08 0)
(0.387648 6.60415e-08 0)
(0.387648 6.40857e-08 0)
(0.387648 6.32168e-08 0)
(0.387648 5.70614e-08 0)
(0.387648 4.94886e-08 0)
(0.387648 4.34122e-08 0)
(0.387648 3.23381e-08 0)
(0.387648 2.13015e-08 0)
(0.387648 2.32662e-08 0)
(0.387648 3.46887e-08 0)
(0.387648 4.84356e-08 0)
(0.387648 5.76865e-08 0)
(0.387648 4.96187e-08 0)
(0.387648 2.8815e-08 0)
(0.387648 1.40187e-08 0)
(0.387648 6.38272e-09 0)
(0.387648 -3.96304e-09 0)
(0.387648 -1.49358e-08 0)
(0.387648 -2.10039e-08 0)
(0.387648 -2.01618e-08 0)
(0.387648 -1.16643e-08 0)
(0.387648 -6.98418e-09 0)
(0.387648 -2.03886e-08 0)
(0.387648 -4.04919e-08 0)
(0.387648 -4.40539e-08 0)
(0.387648 -2.84198e-08 0)
(0.387648 -9.2728e-09 0)
(0.387648 -2.6992e-09 0)
(0.387648 -1.17915e-08 0)
(0.387648 -2.08736e-08 0)
(0.387648 -1.26556e-08 0)
(0.387648 9.95856e-09 0)
(0.387648 2.67747e-08 0)
(0.387648 2.44423e-08 0)
(0.387648 1.07904e-08 0)
(0.387648 2.06294e-09 0)
(0.387648 4.1396e-09 0)
(0.387648 9.60696e-09 0)
(0.387648 8.64193e-09 0)
(0.387648 -3.31238e-09 0)
(0.387648 -2.124e-08 0)
(0.387648 -3.22485e-08 0)
(0.387648 -2.74373e-08 0)
(0.387648 -1.11274e-08 0)
(0.387648 6.73682e-10 0)
(0.387648 -5.59288e-09 0)
(0.387648 -2.43032e-08 0)
(0.387648 -3.40693e-08 0)
(0.387648 -2.18704e-08 0)
(0.387648 2.39841e-09 0)
(0.387648 1.51779e-08 0)
(0.387648 5.46771e-09 0)
(0.387648 -1.1354e-08 0)
(0.387648 -1.21393e-08 0)
(0.387648 6.49762e-09 0)
(0.387648 2.32362e-08 0)
(0.387648 1.771e-08 0)
(0.387648 -6.45932e-09 0)
(0.387648 -2.57777e-08 0)
(0.387648 -2.30975e-08 0)
(0.387648 -6.76494e-09 0)
(0.387648 9.84648e-10 0)
(0.387648 -7.91395e-09 0)
(0.387648 -2.14674e-08 0)
(0.387648 -2.70986e-08 0)
(0.387648 -2.48579e-08 0)
(0.387648 -2.33808e-08 0)
(0.387648 -2.79421e-08 0)
(0.387648 -3.60725e-08 0)
(0.387648 -4.17535e-08 0)
(0.387648 -3.98542e-08 0)
(0.387648 -2.98625e-08 0)
(0.387648 -1.79143e-08 0)
(0.387648 -1.17917e-08 0)
(0.387648 -1.373e-08 0)
(0.387648 -1.5872e-08 0)
(0.387648 -5.42407e-09 0)
(0.387648 1.96537e-08 0)
(0.387648 4.46255e-08 0)
(0.387648 5.20295e-08 0)
(0.387648 4.16038e-08 0)
(0.387648 3.34385e-08 0)
(0.387648 4.39955e-08 0)
(0.387648 6.47797e-08 0)
(0.387648 7.08606e-08 0)
(0.387648 5.05822e-08 0)
(0.387648 2.12753e-08 0)
(0.387648 1.10079e-08 0)
(0.387648 2.57227e-08 0)
(0.387648 3.91717e-08 0)
(0.387648 2.61267e-08 0)
(0.387648 -7.0762e-09 0)
(0.387648 -3.17926e-08 0)
(0.387648 -3.06772e-08 0)
(0.387648 -1.61898e-08 0)
(0.387648 -1.15572e-08 0)
(0.387648 -1.86181e-08 0)
(0.387648 -2.1635e-08 0)
(0.387648 -1.7326e-08 0)
(0.387648 -1.9288e-08 0)
(0.387648 -3.17919e-08 0)
(0.387648 -4.05637e-08 0)
(0.387648 -3.12436e-08 0)
(0.387648 -1.15683e-08 0)
(0.387648 -2.67361e-09 0)
(0.387648 -8.50569e-09 0)
(0.387648 -1.07108e-08 0)
(0.387648 7.80333e-10 0)
(0.387648 1.65041e-08 0)
(0.387648 2.75775e-08 0)
(0.387648 3.40216e-08 0)
(0.387648 3.83441e-08 0)
(0.387648 4.21808e-08 0)
(0.387648 4.22996e-08 0)
(0.387648 3.15842e-08 0)
(0.387648 1.6778e-08 0)
(0.387648 1.83512e-08 0)
(0.387648 3.83519e-08 0)
(0.387648 5.82406e-08 0)
(0.387648 6.04081e-08 0)
(0.387648 3.66243e-08 0)
(0.387648 1.60564e-08 0)
(0.387648 2.71372e-08 0)
(0.387648 5.09295e-08 0)
(0.387648 6.74887e-08 0)
(0.387648 7.08798e-08 0)
(0.387648 8.64407e-08 0)
(0.387648 1.28526e-07 0)
(0.387648 1.54563e-07 0)
(0.59504 -4.0398e-07 0)
(0.59504 -5.18324e-07 0)
(0.59504 -4.74398e-07 0)
(0.59504 -4.28093e-07 0)
(0.59504 -4.0419e-07 0)
(0.59504 -3.23104e-07 0)
(0.59504 -2.21532e-07 0)
(0.59504 -1.16295e-07 0)
(0.59504 -3.50005e-08 0)
(0.59504 2.41231e-08 0)
(0.59504 4.58674e-08 0)
(0.59504 6.37459e-08 0)
(0.59504 4.99747e-08 0)
(0.59504 4.132e-08 0)
(0.59504 3.60383e-08 0)
(0.59504 2.0929e-08 0)
(0.59504 2.44433e-08 0)
(0.59504 4.7201e-08 0)
(0.59504 6.88864e-08 0)
(0.59504 8.69385e-08 0)
(0.59504 9.75084e-08 0)
(0.59504 9.87101e-08 0)
(0.59504 9.91339e-08 0)
(0.59504 9.73539e-08 0)
(0.59504 8.19989e-08 0)
(0.59504 5.58079e-08 0)
(0.59504 3.92211e-08 0)
(0.59504 3.95781e-08 0)
(0.59504 4.71543e-08 0)
(0.59504 5.77179e-08 0)
(0.59504 6.87746e-08 0)
(0.59504 7.82504e-08 0)
(0.59504 8.61701e-08 0)
(0.59504 7.90998e-08 0)
(0.59504 4.71924e-08 0)
(0.59504 1.06303e-08 0)
(0.595039 -5.43988e-09 0)
(0.595039 -2.98955e-09 0)
(0.595039 8.52034e-10 0)
(0.595039 -5.38835e-09 0)
(0.59504 -2.24174e-08 0)
(0.59504 -3.6948e-08 0)
(0.59504 -3.77411e-08 0)
(0.59504 -3.6195e-08 0)
(0.59504 -4.52597e-08 0)
(0.59504 -5.72336e-08 0)
(0.59504 -5.98129e-08 0)
(0.59504 -5.1091e-08 0)
(0.59504 -3.87112e-08 0)
(0.59504 -3.51312e-08 0)
(0.59504 -4.33733e-08 0)
(0.59504 -4.94685e-08 0)
(0.59504 -3.7534e-08 0)
(0.59504 -9.53753e-09 0)
(0.59504 1.69261e-08 0)
(0.59504 2.74785e-08 0)
(0.59504 2.29468e-08 0)
(0.59504 1.40042e-08 0)
(0.59504 8.56863e-09 0)
(0.59504 7.31934e-09 0)
(0.59504 5.37345e-09 0)
(0.59504 -2.76953e-09 0)
(0.59504 -1.65627e-08 0)
(0.59504 -2.66913e-08 0)
(0.59504 -2.23339e-08 0)
(0.59504 -3.5812e-09 0)
(0.59504 1.45533e-08 0)
(0.59504 1.51808e-08 0)
(0.59504 -1.53072e-09 0)
(0.59504 -1.74465e-08 0)
(0.59504 -1.53199e-08 0)
(0.59504 2.28408e-09 0)
(0.59504 1.63783e-08 0)
(0.59504 1.46904e-08 0)
(0.59504 5.89038e-09 0)
(0.59504 7.49785e-09 0)
(0.59504 2.19535e-08 0)
(0.59504 3.1438e-08 0)
(0.59504 1.69189e-08 0)
(0.59504 -1.70457e-08 0)
(0.59504 -4.30962e-08 0)
(0.59504 -4.04098e-08 0)
(0.59504 -1.773e-08 0)
(0.59504 -1.6511e-10 0)
(0.59504 -8.25561e-10 0)
(0.59504 -1.25655e-08 0)
(0.59504 -2.23769e-08 0)
(0.59504 -2.51413e-08 0)
(0.59504 -2.40337e-08 0)
(0.59504 -2.4316e-08 0)
(0.59504 -2.92054e-08 0)
(0.59504 -3.65077e-08 0)
(0.59504 -3.76845e-08 0)
(0.59504 -2.63518e-08 0)
(0.59504 -5.185e-09 0)
(0.59504 1.29556e-08 0)
(0.59504 1.73414e-08 0)
(0.59504 1.36323e-08 0)
(0.59504 1.8002e-08 0)
(0.59504 3.88625e-08 0)
(0.59504 6.47413e-08 0)
(0.59504 7.51566e-08 0)
(0.59504 6.5185e-08 0)
(0.59504 5.18864e-08 0)
(0.59504 5.33256e-08 0)
(0.59504 6.73202e-08 0)
(0.59504 7.34408e-08 0)
(0.59504 5.68738e-08 0)
(0.59504 2.86685e-08 0)
(0.59504 1.53532e-08 0)
(0.59504 2.37811e-08 0)
(0.59504 3.19806e-08 0)
(0.59504 1.76277e-08 0)
(0.59504 -1.50154e-08 0)
(0.59504 -4.07307e-08 0)
(0.59504 -4.43102e-08 0)
(0.59504 -3.84675e-08 0)
(0.59504 -4.21899e-08 0)
(0.59504 -5.18507e-08 0)
(0.59504 -5.13526e-08 0)
(0.59504 -4.10189e-08 0)
(0.59504 -3.67478e-08 0)
(0.59504 -4.56241e-08 0)
(0.59504 -5.30326e-08 0)
(0.59504 -4.28319e-08 0)
(0.59504 -2.19039e-08 0)
(0.59504 -8.41805e-09 0)
(0.59504 -2.78681e-09 0)
(0.59504 7.75954e-09 0)
(0.59504 2.34929e-08 0)
(0.59504 3.37838e-08 0)
(0.59504 3.34033e-08 0)
(0.59504 2.63598e-08 0)
(0.59504 2.14088e-08 0)
(0.59504 2.68593e-08 0)
(0.59504 3.81804e-08 0)
(0.59504 3.99473e-08 0)
(0.59504 3.54065e-08 0)
(0.59504 4.10785e-08 0)
(0.59504 5.71967e-08 0)
(0.59504 7.72691e-08 0)
(0.59504 8.35587e-08 0)
(0.59504 6.58238e-08 0)
(0.59504 5.36703e-08 0)
(0.59504 6.59831e-08 0)
(0.59504 9.99764e-08 0)
(0.59504 1.41056e-07 0)
(0.59504 1.87202e-07 0)
(0.59504 2.26399e-07 0)
(0.59504 2.4443e-07 0)
(0.764412 -3.72788e-07 0)
(0.764411 -4.48864e-07 0)
(0.764411 -5.00788e-07 0)
(0.764411 -4.98155e-07 0)
(0.764411 -4.08807e-07 0)
(0.764411 -2.85751e-07 0)
(0.764411 -1.94105e-07 0)
(0.764411 -8.35058e-08 0)
(0.764411 -5.27452e-09 0)
(0.76441 4.18124e-08 0)
(0.76441 9.0938e-08 0)
(0.764411 9.98927e-08 0)
(0.764411 7.3734e-08 0)
(0.76441 5.32702e-08 0)
(0.76441 6.22445e-08 0)
(0.76441 7.84257e-08 0)
(0.76441 8.54809e-08 0)
(0.76441 8.58235e-08 0)
(0.76441 7.9514e-08 0)
(0.76441 8.42373e-08 0)
(0.76441 1.06307e-07 0)
(0.76441 1.20597e-07 0)
(0.76441 1.13238e-07 0)
(0.76441 9.2733e-08 0)
(0.76441 6.78729e-08 0)
(0.76441 4.35205e-08 0)
(0.76441 2.91066e-08 0)
(0.76441 3.1173e-08 0)
(0.76441 4.55469e-08 0)
(0.76441 6.5089e-08 0)
(0.76441 7.8562e-08 0)
(0.76441 7.91054e-08 0)
(0.76441 7.69836e-08 0)
(0.76441 7.46827e-08 0)
(0.76441 5.63555e-08 0)
(0.76441 2.07257e-08 0)
(0.76441 -1.01165e-08 0)
(0.76441 -2.00093e-08 0)
(0.76441 -1.39837e-08 0)
(0.76441 -8.08441e-09 0)
(0.76441 -1.86211e-08 0)
(0.76441 -4.45177e-08 0)
(0.76441 -6.40692e-08 0)
(0.76441 -6.66473e-08 0)
(0.76441 -6.49147e-08 0)
(0.76441 -7.20145e-08 0)
(0.76441 -8.87251e-08 0)
(0.76441 -1.0447e-07 0)
(0.76441 -1.06034e-07 0)
(0.76441 -9.09817e-08 0)
(0.76441 -7.1877e-08 0)
(0.76441 -5.88703e-08 0)
(0.76441 -4.75695e-08 0)
(0.76441 -2.85807e-08 0)
(0.76441 -1.29881e-09 0)
(0.76441 2.30884e-08 0)
(0.76441 3.3625e-08 0)
(0.76441 2.8965e-08 0)
(0.76441 1.70859e-08 0)
(0.76441 8.04525e-09 0)
(0.76441 7.89813e-09 0)
(0.76441 1.41584e-08 0)
(0.76441 1.70365e-08 0)
(0.76441 1.04614e-08 0)
(0.76441 1.66616e-11 0)
(0.76441 -8.08238e-10 0)
(0.76441 1.51516e-08 0)
(0.76441 3.73653e-08 0)
(0.76441 4.65166e-08 0)
(0.76441 3.63524e-08 0)
(0.76441 2.11021e-08 0)
(0.76441 2.05957e-08 0)
(0.76441 3.77594e-08 0)
(0.76441 5.4183e-08 0)
(0.76441 5.17797e-08 0)
(0.76441 3.17601e-08 0)
(0.76441 1.18965e-08 0)
(0.76441 4.75196e-09 0)
(0.76441 3.31532e-09 0)
(0.76441 -7.61973e-09 0)
(0.76441 -2.89398e-08 0)
(0.76441 -4.33769e-08 0)
(0.76441 -3.59638e-08 0)
(0.76441 -1.23698e-08 0)
(0.76441 8.7234e-09 0)
(0.76441 1.55484e-08 0)
(0.76441 1.05336e-08 0)
(0.76441 2.49374e-09 0)
(0.76441 -2.46225e-09 0)
(0.76441 -2.72822e-09 0)
(0.76441 -2.27369e-09 0)
(0.76441 -6.31017e-09 0)
(0.76441 -1.38322e-08 0)
(0.76441 -1.63462e-08 0)
(0.76441 -4.0623e-09 0)
(0.76441 2.1451e-08 0)
(0.76441 4.52418e-08 0)
(0.76441 5.17189e-08 0)
(0.76441 4.14831e-08 0)
(0.76441 3.1716e-08 0)
(0.76441 3.60326e-08 0)
(0.76441 4.87117e-08 0)
(0.76441 5.23162e-08 0)
(0.76441 4.00733e-08 0)
(0.76441 2.52839e-08 0)
(0.76441 2.69888e-08 0)
(0.76441 4.75315e-08 0)
(0.76441 6.60553e-08 0)
(0.76441 6.02067e-08 0)
(0.76441 3.3502e-08 0)
(0.76441 1.02154e-08 0)
(0.76441 3.37707e-09 0)
(0.76441 2.12711e-09 0)
(0.76441 -1.07304e-08 0)
(0.76441 -3.50796e-08 0)
(0.76441 -5.27082e-08 0)
(0.76441 -5.34e-08 0)
(0.76441 -5.00239e-08 0)
(0.76441 -5.53272e-08 0)
(0.76441 -6.2762e-08 0)
(0.76441 -5.87945e-08 0)
(0.76441 -4.44846e-08 0)
(0.76441 -3.5013e-08 0)
(0.76441 -3.76148e-08 0)
(0.76441 -3.93306e-08 0)
(0.76441 -2.82365e-08 0)
(0.76441 -1.23044e-08 0)
(0.76441 -2.54963e-09 0)
(0.76441 3.82956e-09 0)
(0.76441 1.06918e-08 0)
(0.76441 1.56902e-08 0)
(0.76441 1.49142e-08 0)
(0.76441 6.8032e-09 0)
(0.76441 -3.85666e-09 0)
(0.76441 -7.81888e-09 0)
(0.76441 5.04074e-09 0)
(0.76441 2.66791e-08 0)
(0.76441 3.9219e-08 0)
(0.76441 4.30671e-08 0)
(0.76441 4.37656e-08 0)
(0.76441 4.87705e-08 0)
(0.76441 6.31403e-08 0)
(0.76441 6.97354e-08 0)
(0.76441 6.98184e-08 0)
(0.76441 8.55966e-08 0)
(0.76441 1.11849e-07 0)
(0.76441 1.5729e-07 0)
(0.76441 2.08244e-07 0)
(0.76441 2.44801e-07 0)
(0.76441 2.4165e-07 0)
(0.895942 -2.4318e-07 0)
(0.895941 -2.67476e-07 0)
(0.895941 -2.97551e-07 0)
(0.895941 -2.78778e-07 0)
(0.895941 -2.11198e-07 0)
(0.895941 -9.90535e-08 0)
(0.89594 -2.91317e-08 0)
(0.89594 5.21695e-08 0)
(0.89594 1.20053e-07 0)
(0.89594 1.5832e-07 0)
(0.89594 1.88164e-07 0)
(0.89594 1.87193e-07 0)
(0.89594 1.61793e-07 0)
(0.89594 1.2356e-07 0)
(0.89594 1.02638e-07 0)
(0.895939 1.08418e-07 0)
(0.895939 1.19329e-07 0)
(0.895939 1.23696e-07 0)
(0.895939 1.0978e-07 0)
(0.895939 9.31291e-08 0)
(0.895939 1.02668e-07 0)
(0.895939 1.22765e-07 0)
(0.895939 1.20967e-07 0)
(0.895939 9.82181e-08 0)
(0.895939 7.44428e-08 0)
(0.895939 5.97402e-08 0)
(0.895939 5.40346e-08 0)
(0.895939 5.27618e-08 0)
(0.895939 5.23623e-08 0)
(0.895939 6.07431e-08 0)
(0.895939 7.78984e-08 0)
(0.895939 8.37056e-08 0)
(0.895939 7.24046e-08 0)
(0.895939 6.00442e-08 0)
(0.895939 5.27522e-08 0)
(0.895939 4.10584e-08 0)
(0.895939 2.155e-08 0)
(0.895939 1.56236e-09 0)
(0.895939 -8.91492e-09 0)
(0.895939 -4.6704e-09 0)
(0.895939 3.0048e-09 0)
(0.895939 -5.93367e-09 0)
(0.895939 -3.23981e-08 0)
(0.895939 -5.84491e-08 0)
(0.895939 -7.31398e-08 0)
(0.895939 -7.97247e-08 0)
(0.895939 -8.81949e-08 0)
(0.895939 -1.04248e-07 0)
(0.895939 -1.19554e-07 0)
(0.895939 -1.18099e-07 0)
(0.895939 -9.59743e-08 0)
(0.895939 -6.61793e-08 0)
(0.895939 -4.2576e-08 0)
(0.895939 -2.73628e-08 0)
(0.895939 -1.37991e-08 0)
(0.895939 3.62267e-09 0)
(0.895939 2.24545e-08 0)
(0.895939 3.39509e-08 0)
(0.895939 3.20035e-08 0)
(0.895939 1.96301e-08 0)
(0.895939 7.70251e-09 0)
(0.895939 7.37129e-09 0)
(0.895939 1.90307e-08 0)
(0.895939 3.00556e-08 0)
(0.895939 2.71184e-08 0)
(0.895939 1.13443e-08 0)
(0.895939 -5.53991e-11 0)
(0.895939 8.02398e-09 0)
(0.895939 3.05833e-08 0)
(0.895939 4.76739e-08 0)
(0.895939 4.47476e-08 0)
(0.895939 2.8966e-08 0)
(0.895939 2.01658e-08 0)
(0.895939 2.61826e-08 0)
(0.895939 3.42228e-08 0)
(0.895939 2.51055e-08 0)
(0.895939 -4.11127e-09 0)
(0.895939 -3.57589e-08 0)
(0.895939 -4.97793e-08 0)
(0.895939 -4.45088e-08 0)
(0.895939 -3.44103e-08 0)
(0.895939 -3.00506e-08 0)
(0.895939 -2.78002e-08 0)
(0.895939 -1.97969e-08 0)
(0.895939 -5.52202e-09 0)
(0.895939 7.92321e-09 0)
(0.895939 1.44994e-08 0)
(0.895939 1.29353e-08 0)
(0.895939 5.3842e-09 0)
(0.895939 -2.43589e-09 0)
(0.895939 -4.75415e-09 0)
(0.895939 -5.36424e-10 0)
(0.895939 4.64875e-09 0)
(0.895939 5.66477e-09 0)
(0.895939 5.12114e-09 0)
(0.895939 1.21809e-08 0)
(0.895939 2.99856e-08 0)
(0.895939 4.72884e-08 0)
(0.895939 4.93062e-08 0)
(0.895939 3.43296e-08 0)
(0.895939 1.70825e-08 0)
(0.895939 1.28736e-08 0)
(0.895939 2.07684e-08 0)
(0.895939 2.70969e-08 0)
(0.895939 2.24091e-08 0)
(0.895939 1.39001e-08 0)
(0.895939 1.87277e-08 0)
(0.895939 4.17731e-08 0)
(0.895939 6.29028e-08 0)
(0.895939 5.79568e-08 0)
(0.895939 2.82251e-08 0)
(0.895939 -2.81099e-09 0)
(0.895939 -1.68323e-08 0)
(0.895939 -1.6775e-08 0)
(0.895939 -1.83819e-08 0)
(0.89594 -2.59353e-08 0)
(0.895939 -2.8235e-08 0)
(0.895939 -2.2216e-08 0)
(0.895939 -1.84183e-08 0)
(0.895939 -2.35799e-08 0)
(0.895939 -3.04629e-08 0)
(0.895939 -2.75015e-08 0)
(0.895939 -1.5784e-08 0)
(0.895939 -8.95955e-09 0)
(0.895939 -1.02089e-08 0)
(0.895939 -7.72748e-09 0)
(0.895939 7.12106e-10 0)
(0.895939 5.36151e-09 0)
(0.895939 4.29993e-09 0)
(0.895939 9.99923e-10 0)
(0.895939 -1.53807e-09 0)
(0.895939 -1.0457e-09 0)
(0.895939 1.08252e-10 0)
(0.895939 -5.88666e-10 0)
(0.895939 -4.90919e-09 0)
(0.895939 -2.88523e-09 0)
(0.895939 1.76491e-08 0)
(0.895939 4.43169e-08 0)
(0.895939 6.15837e-08 0)
(0.895939 6.73722e-08 0)
(0.895939 6.53047e-08 0)
(0.89594 7.03548e-08 0)
(0.89594 8.27829e-08 0)
(0.89594 8.90164e-08 0)
(0.89594 1.07655e-07 0)
(0.89594 1.34045e-07 0)
(0.89594 1.81226e-07 0)
(0.89594 2.1705e-07 0)
(0.89594 2.43196e-07 0)
(0.89594 2.24708e-07 0)
(0.98978 -2.42618e-08 0)
(0.989779 -5.54453e-08 0)
(0.989779 -8.78473e-09 0)
(0.989779 5.8496e-08 0)
(0.989779 1.17667e-07 0)
(0.989778 1.74979e-07 0)
(0.989778 2.13894e-07 0)
(0.989778 2.84597e-07 0)
(0.989778 3.04603e-07 0)
(0.989777 3.03895e-07 0)
(0.989777 2.93509e-07 0)
(0.989777 2.70027e-07 0)
(0.989777 2.49475e-07 0)
(0.989777 2.19034e-07 0)
(0.989777 1.83099e-07 0)
(0.989777 1.5725e-07 0)
(0.989777 1.40954e-07 0)
(0.989777 1.36533e-07 0)
(0.989777 1.35681e-07 0)
(0.989777 1.24925e-07 0)
(0.989777 1.15621e-07 0)
(0.989777 1.12728e-07 0)
(0.989777 1.02975e-07 0)
(0.989777 8.69147e-08 0)
(0.989777 7.61807e-08 0)
(0.989777 7.22859e-08 0)
(0.989777 7.30965e-08 0)
(0.989777 7.64985e-08 0)
(0.989777 7.42348e-08 0)
(0.989777 7.0987e-08 0)
(0.989777 8.03144e-08 0)
(0.989777 9.0321e-08 0)
(0.989777 8.05503e-08 0)
(0.989776 5.84387e-08 0)
(0.989776 4.4586e-08 0)
(0.989776 4.50649e-08 0)
(0.989776 5.10376e-08 0)
(0.989776 4.9232e-08 0)
(0.989776 3.51088e-08 0)
(0.989776 1.9957e-08 0)
(0.989777 1.52297e-08 0)
(0.989777 1.30599e-08 0)
(0.989777 -1.46428e-09 0)
(0.989777 -2.97655e-08 0)
(0.989777 -6.09587e-08 0)
(0.989777 -8.31273e-08 0)
(0.989777 -9.19156e-08 0)
(0.989777 -9.44246e-08 0)
(0.989777 -9.81175e-08 0)
(0.989777 -9.97095e-08 0)
(0.989777 -9.1031e-08 0)
(0.989777 -7.24637e-08 0)
(0.989777 -5.22492e-08 0)
(0.989777 -3.67386e-08 0)
(0.989777 -2.61623e-08 0)
(0.989777 -1.59276e-08 0)
(0.989777 -2.07107e-09 0)
(0.989777 1.37461e-08 0)
(0.989777 2.51712e-08 0)
(0.989777 2.6416e-08 0)
(0.989777 1.64037e-08 0)
(0.989777 1.97812e-09 0)
(0.989777 -4.84729e-09 0)
(0.989777 1.49159e-09 0)
(0.989777 1.28405e-08 0)
(0.989777 1.52995e-08 0)
(0.989777 5.67984e-09 0)
(0.989777 -4.54825e-09 0)
(0.989777 -2.17379e-09 0)
(0.989777 1.25909e-08 0)
(0.989777 2.41039e-08 0)
(0.989777 1.79464e-08 0)
(0.989777 -3.35952e-09 0)
(0.989777 -2.39242e-08 0)
(0.989777 -3.2926e-08 0)
(0.989777 -3.55284e-08 0)
(0.989777 -4.45459e-08 0)
(0.989777 -6.35135e-08 0)
(0.989777 -8.03325e-08 0)
(0.989777 -8.03794e-08 0)
(0.989777 -6.34933e-08 0)
(0.989777 -4.27184e-08 0)
(0.989777 -2.89762e-08 0)
(0.989777 -2.33255e-08 0)
(0.989777 -2.03444e-08 0)
(0.989777 -1.462e-08 0)
(0.989777 -4.65612e-09 0)
(0.989777 6.97692e-09 0)
(0.989777 1.46373e-08 0)
(0.989777 1.39584e-08 0)
(0.989777 8.2521e-09 0)
(0.989777 6.96831e-09 0)
(0.989777 1.53157e-08 0)
(0.989777 2.7658e-08 0)
(0.989777 3.29894e-08 0)
(0.989777 2.91373e-08 0)
(0.989777 2.47011e-08 0)
(0.989777 2.73271e-08 0)
(0.989777 3.38336e-08 0)
(0.989777 3.31616e-08 0)
(0.989777 2.05509e-08 0)
(0.989777 4.98323e-09 0)
(0.989777 -6.53978e-11 0)
(0.989777 8.97756e-09 0)
(0.989777 2.20958e-08 0)
(0.989777 2.63815e-08 0)
(0.989777 2.17414e-08 0)
(0.989777 2.23975e-08 0)
(0.989777 3.57575e-08 0)
(0.989777 4.86911e-08 0)
(0.989777 4.48099e-08 0)
(0.989777 2.53754e-08 0)
(0.989777 7.39026e-09 0)
(0.989777 4.69861e-09 0)
(0.989777 1.15314e-08 0)
(0.989777 1.43254e-08 0)
(0.989777 1.34499e-08 0)
(0.989777 1.78299e-08 0)
(0.989777 2.67981e-08 0)
(0.989777 3.14747e-08 0)
(0.989777 2.67443e-08 0)
(0.989777 1.95082e-08 0)
(0.989777 2.0657e-08 0)
(0.989777 2.68299e-08 0)
(0.989777 2.54933e-08 0)
(0.989777 1.82678e-08 0)
(0.989777 1.37078e-08 0)
(0.989777 1.03039e-08 0)
(0.989777 6.5608e-09 0)
(0.989777 2.14206e-09 0)
(0.989777 -4.13447e-09 0)
(0.989777 -8.19851e-09 0)
(0.989777 -6.37863e-09 0)
(0.989777 2.70341e-09 0)
(0.989777 1.2616e-08 0)
(0.989777 1.46143e-08 0)
(0.989777 2.09684e-08 0)
(0.989777 4.00209e-08 0)
(0.989777 6.21278e-08 0)
(0.989777 8.24523e-08 0)
(0.989777 9.24706e-08 0)
(0.989777 9.48074e-08 0)
(0.989777 1.05946e-07 0)
(0.989777 1.24583e-07 0)
(0.989777 1.36841e-07 0)
(0.989777 1.59685e-07 0)
(0.989777 1.93824e-07 0)
(0.989777 2.11087e-07 0)
(0.989777 2.13091e-07 0)
(0.989778 2.03203e-07 0)
(1.04604 2.41419e-07 0)
(1.04604 2.8301e-07 0)
(1.04604 3.47832e-07 0)
(1.04604 4.1027e-07 0)
(1.04604 4.77597e-07 0)
(1.04604 5.11627e-07 0)
(1.04604 5.03912e-07 0)
(1.04603 5.08292e-07 0)
(1.04603 4.89279e-07 0)
(1.04603 4.5602e-07 0)
(1.04603 4.19371e-07 0)
(1.04603 3.79654e-07 0)
(1.04603 3.43968e-07 0)
(1.04603 3.08778e-07 0)
(1.04603 2.64838e-07 0)
(1.04603 2.17734e-07 0)
(1.04603 1.71506e-07 0)
(1.04603 1.39018e-07 0)
(1.04603 1.31242e-07 0)
(1.04603 1.27228e-07 0)
(1.04603 1.11764e-07 0)
(1.04603 9.41111e-08 0)
(1.04603 7.99273e-08 0)
(1.04603 6.92544e-08 0)
(1.04603 6.43442e-08 0)
(1.04603 5.93792e-08 0)
(1.04603 5.25201e-08 0)
(1.04603 5.44311e-08 0)
(1.04603 6.22395e-08 0)
(1.04603 6.43334e-08 0)
(1.04603 6.71341e-08 0)
(1.04603 7.46577e-08 0)
(1.04603 7.40712e-08 0)
(1.04603 6.15175e-08 0)
(1.04603 4.81423e-08 0)
(1.04603 4.39596e-08 0)
(1.04603 5.01895e-08 0)
(1.04603 5.80313e-08 0)
(1.04603 5.32304e-08 0)
(1.04603 3.27233e-08 0)
(1.04603 9.64003e-09 0)
(1.04603 -5.57591e-09 0)
(1.04603 -1.605e-08 0)
(1.04603 -3.02019e-08 0)
(1.04603 -5.13521e-08 0)
(1.04603 -7.50713e-08 0)
(1.04603 -9.09974e-08 0)
(1.04603 -9.45081e-08 0)
(1.04603 -9.06075e-08 0)
(1.04603 -8.56096e-08 0)
(1.04603 -7.94504e-08 0)
(1.04603 -6.99234e-08 0)
(1.04603 -5.79636e-08 0)
(1.04603 -4.48157e-08 0)
(1.04603 -3.11829e-08 0)
(1.04603 -1.85701e-08 0)
(1.04603 -8.3745e-09 0)
(1.04603 -6.48915e-10 0)
(1.04603 5.74525e-09 0)
(1.04603 1.16016e-08 0)
(1.04603 1.5144e-08 0)
(1.04603 1.16622e-08 0)
(1.04603 1.59111e-09 0)
(1.04603 -6.0172e-09 0)
(1.04603 -3.14748e-09 0)
(1.04603 7.02808e-09 0)
(1.04603 1.35532e-08 0)
(1.04603 9.54618e-09 0)
(1.04603 -3.57847e-10 0)
(1.04603 -5.88974e-09 0)
(1.04603 -3.98763e-09 0)
(1.04603 -3.41171e-09 0)
(1.04603 -1.45239e-08 0)
(1.04603 -3.59672e-08 0)
(1.04603 -5.65285e-08 0)
(1.04603 -6.67691e-08 0)
(1.04603 -6.81289e-08 0)
(1.04603 -6.91424e-08 0)
(1.04603 -7.36319e-08 0)
(1.04603 -7.59921e-08 0)
(1.04603 -6.98544e-08 0)
(1.04603 -5.72712e-08 0)
(1.04603 -4.47303e-08 0)
(1.04603 -3.44759e-08 0)
(1.04603 -2.43228e-08 0)
(1.04603 -1.15323e-08 0)
(1.04603 3.87922e-09 0)
(1.04603 1.99297e-08 0)
(1.04603 3.43376e-08 0)
(1.04603 4.23873e-08 0)
(1.04603 4.11682e-08 0)
(1.04603 3.49466e-08 0)
(1.04603 3.32351e-08 0)
(1.04603 4.04686e-08 0)
(1.04603 4.98524e-08 0)
(1.04603 5.09678e-08 0)
(1.04603 4.17801e-08 0)
(1.04603 3.00706e-08 0)
(1.04603 2.40559e-08 0)
(1.04603 2.27661e-08 0)
(1.04603 1.74094e-08 0)
(1.04603 3.19174e-09 0)
(1.04603 -1.20378e-08 0)
(1.04603 -1.59242e-08 0)
(1.04603 -3.88188e-09 0)
(1.04603 1.4062e-08 0)
(1.04603 2.17995e-08 0)
(1.04603 1.6971e-08 0)
(1.04603 1.33818e-08 0)
(1.04603 1.9773e-08 0)
(1.04603 3.035e-08 0)
(1.04603 3.48226e-08 0)
(1.04603 3.26427e-08 0)
(1.04603 3.41022e-08 0)
(1.04603 4.3614e-08 0)
(1.04603 5.17158e-08 0)
(1.04603 5.10583e-08 0)
(1.04603 4.85699e-08 0)
(1.04603 5.16845e-08 0)
(1.04603 5.81858e-08 0)
(1.04603 5.8801e-08 0)
(1.04603 4.83537e-08 0)
(1.04603 3.65623e-08 0)
(1.04603 3.49508e-08 0)
(1.04603 3.60429e-08 0)
(1.04603 2.90698e-08 0)
(1.04603 1.78438e-08 0)
(1.04603 6.85642e-09 0)
(1.04603 -4.83423e-10 0)
(1.04603 -3.35524e-09 0)
(1.04603 -8.57147e-09 0)
(1.04603 -1.76712e-08 0)
(1.04603 -2.57451e-08 0)
(1.04603 -2.46067e-08 0)
(1.04603 -8.28821e-09 0)
(1.04603 8.9043e-09 0)
(1.04603 1.7935e-08 0)
(1.04603 2.88228e-08 0)
(1.04603 4.59039e-08 0)
(1.04603 7.12854e-08 0)
(1.04603 9.49563e-08 0)
(1.04603 9.89143e-08 0)
(1.04603 9.37465e-08 0)
(1.04603 1.16704e-07 0)
(1.04603 1.34934e-07 0)
(1.04603 1.56182e-07 0)
(1.04603 1.66391e-07 0)
(1.04603 1.60584e-07 0)
(1.04603 1.41092e-07 0)
(1.04603 1.3544e-07 0)
(1.06478 5.20114e-07 0)
(1.06478 6.15106e-07 0)
(1.06478 7.20673e-07 0)
(1.06478 7.93739e-07 0)
(1.06478 8.46357e-07 0)
(1.06478 8.23433e-07 0)
(1.06478 7.9682e-07 0)
(1.06478 7.40831e-07 0)
(1.06478 6.82173e-07 0)
(1.06478 6.16555e-07 0)
(1.06478 5.53152e-07 0)
(1.06478 4.97468e-07 0)
(1.06478 4.39959e-07 0)
(1.06478 3.7658e-07 0)
(1.06478 3.04844e-07 0)
(1.06478 2.39128e-07 0)
(1.06478 1.8939e-07 0)
(1.06478 1.54583e-07 0)
(1.06478 1.37256e-07 0)
(1.06478 1.25609e-07 0)
(1.06478 1.05535e-07 0)
(1.06478 8.69095e-08 0)
(1.06478 7.92746e-08 0)
(1.06478 7.60019e-08 0)
(1.06478 7.41557e-08 0)
(1.06478 7.05801e-08 0)
(1.06478 6.01045e-08 0)
(1.06478 5.41735e-08 0)
(1.06478 6.11326e-08 0)
(1.06478 6.62408e-08 0)
(1.06478 6.34879e-08 0)
(1.06478 6.22406e-08 0)
(1.06478 6.10508e-08 0)
(1.06478 5.35619e-08 0)
(1.06478 4.26343e-08 0)
(1.06478 3.33636e-08 0)
(1.06478 2.84345e-08 0)
(1.06478 2.85624e-08 0)
(1.06478 2.72451e-08 0)
(1.06478 1.5465e-08 0)
(1.06478 -4.25608e-09 0)
(1.06478 -2.05113e-08 0)
(1.06478 -2.82484e-08 0)
(1.06478 -3.19062e-08 0)
(1.06478 -4.05135e-08 0)
(1.06478 -5.81939e-08 0)
(1.06478 -7.71063e-08 0)
(1.06478 -8.52011e-08 0)
(1.06478 -8.05372e-08 0)
(1.06478 -7.22986e-08 0)
(1.06478 -6.77935e-08 0)
(1.06478 -6.60064e-08 0)
(1.06478 -6.23984e-08 0)
(1.06478 -5.36283e-08 0)
(1.06478 -3.92597e-08 0)
(1.06478 -2.31238e-08 0)
(1.06478 -1.05036e-08 0)
(1.06478 -3.88974e-09 0)
(1.06478 -2.24427e-09 0)
(1.06478 -1.01062e-09 0)
(1.06478 4.71288e-09 0)
(1.06478 1.24418e-08 0)
(1.06478 1.3751e-08 0)
(1.06478 5.74069e-09 0)
(1.06478 -4.88287e-09 0)
(1.06478 -9.68609e-09 0)
(1.06478 -8.18138e-09 0)
(1.06478 -7.94185e-09 0)
(1.06478 -1.4993e-08 0)
(1.06478 -2.64943e-08 0)
(1.06478 -3.36161e-08 0)
(1.06478 -3.36738e-08 0)
(1.06478 -3.3827e-08 0)
(1.06478 -4.19624e-08 0)
(1.06478 -5.6332e-08 0)
(1.06478 -6.62137e-08 0)
(1.06478 -6.37963e-08 0)
(1.06478 -5.27154e-08 0)
(1.06478 -4.31592e-08 0)
(1.06478 -3.99448e-08 0)
(1.06478 -3.91087e-08 0)
(1.06478 -3.51492e-08 0)
(1.06478 -2.72507e-08 0)
(1.06478 -1.72595e-08 0)
(1.06478 -5.37047e-09 0)
(1.06478 9.49024e-09 0)
(1.06478 2.53997e-08 0)
(1.06478 3.84066e-08 0)
(1.06478 4.8056e-08 0)
(1.06478 5.51314e-08 0)
(1.06478 5.8428e-08 0)
(1.06478 5.58207e-08 0)
(1.06478 4.98882e-08 0)
(1.06478 4.74065e-08 0)
(1.06478 5.07435e-08 0)
(1.06478 5.38192e-08 0)
(1.06478 4.88823e-08 0)
(1.06478 3.45265e-08 0)
(1.06478 1.69687e-08 0)
(1.06478 4.17128e-09 0)
(1.06478 -2.8175e-09 0)
(1.06478 -1.04012e-08 0)
(1.06478 -2.20169e-08 0)
(1.06478 -3.26427e-08 0)
(1.06478 -3.28755e-08 0)
(1.06478 -1.93168e-08 0)
(1.06478 -2.73238e-09 0)
(1.06478 2.74616e-09 0)
(1.06478 -1.49101e-09 0)
(1.06478 -2.11304e-09 0)
(1.06478 9.06622e-09 0)
(1.06478 2.65628e-08 0)
(1.06478 3.92677e-08 0)
(1.06478 4.60361e-08 0)
(1.06478 5.65319e-08 0)
(1.06478 7.10549e-08 0)
(1.06478 7.85763e-08 0)
(1.06478 7.49718e-08 0)
(1.06478 6.63378e-08 0)
(1.06478 6.03052e-08 0)
(1.06478 5.90419e-08 0)
(1.06478 5.49076e-08 0)
(1.06478 4.35042e-08 0)
(1.06478 3.45912e-08 0)
(1.06478 3.18084e-08 0)
(1.06478 2.64913e-08 0)
(1.06478 1.74094e-08 0)