/*--------------------------------*- C++ -*----------------------------------*\
| =========                 |                                                 |
| \\      /  F ield         | OpenFOAM: The Open Source CFD Toolbox           |
|  \\    /   O peration     | Version:  2406                                  |
|   \\  /    A nd           | Website:  www.openfoam.com                      |
|    \\/     M anipulation  |                                                 |
\*---------------------------------------------------------------------------*/
FoamFile
{
    version     2.0;
    format      ascii;
    arch        "LSB;label=32;scalar=64";
    class       volScalarField;
    location    "0.2";
    object      p;
}
// * * * * * * * * * * * * * * * * * * * * * * * * * * * * * * * * * * * * * //

dimensions      [0 2 -2 0 0 0 0];

internalField   nonuniform List<scalar> 
250
(
102.841
102.81
102.779
102.749
102.718
102.688
102.657
102.626
102.596
102.565
102.534
102.504
102.473
102.443
102.412
102.381
102.351
102.32
102.29
102.259
102.228
102.198
102.167
102.136
102.106
102.075
102.045
102.014
101.983
101.953
101.922
101.891
101.861
101.83
101.8
101.769
101.738
101.708
101.677
101.647
101.616
101.585
101.555
101.524
101.493
101.463
101.432
101.402
101.371
101.34
102.841
102.81
102.779
102.749
102.718
102.688
102.657
102.626
102.596
102.565
102.534
102.504
102.473
102.443
102.412
102.381
102.351
102.32
102.29
102.259
102.228
102.198
102.167
102.136
102.106
102.075
102.045
102.014
101.983
101.953
101.922
101.891
101.861
101.83
101.8
101.769
101.738
101.708
101.677
101.647
101.616
101.585
101.555
101.524
101.493
101.463
101.432
101.402
101.371
101.34
102.841
102.81
102.779
102.749
102.718
102.688
102.657
102.626
102.596
102.565
102.534
102.504
102.473
102.443
102.412
102.381
102.351
102.32
102.29
102.259
102.228
102.198
102.167
102.136
102.106
102.075
102.045
102.014
101.983
101.953
101.922
101.891
101.861
101.83
101.8
101.769
101.738
101.708
101.677
101.647
101.616
101.585
101.555
101.524
101.493
101.463
101.432
101.402
101.371
101.34
102.841
102.81
102.779
102.749
102.718
102.688
102.657
102.626
102.596
102.565
102.534
102.504
102.473
102.443
102.412
102.381
102.351
102.32
102.29
102.259
102.228
102.198
102.167
102.136
102.106
102.075
102.045
102.014
101.983
101.953
101.922
101.891
101.861
101.83
101.8
101.769
101.738
101.708
101.677
101.647
101.616
101.585
101.555
101.524
101.493
101.463
101.432
101.402
101.371
101.34
102.841
102.81
102.779
102.749
102.718
102.688
102.657
102.626
102.596
102.565
102.534
102.504
102.473
102.443
102.412
102.381
102.351
102.32
102.29
102.259
102.228
102.198
102.167
102.136
102.106
102.075
102.045
102.014
101.983
101.953
101.922
101.891
101.861
101.83
101.8
101.769
101.738
101.708
101.677
101.647
101.616
101.585
101.555
101.524
101.493
101.463
101.432
101.402
101.371
101.34
)
;

boundaryField
{
    inlet
    {
        type            fixedValue;
        value           uniform 102.856;
    }
    outlet
    {
        type            fixedValue;
        value           uniform 101.325;
    }
    walls
    {
        type            zeroGradient;
    }
    frontAndBack
    {
        type            empty;
    }
}


// ************************************************************************* //
