/*--------------------------------*- C++ -*----------------------------------*\
| =========                 |                                                 |
| \\      /  F ield         | OpenFOAM: The Open Source CFD Toolbox           |
|  \\    /   O peration     | Version:  2406                                  |
|   \\  /    A nd           | Website:  www.openfoam.com                      |
|    \\/     M anipulation  |                                                 |
\*---------------------------------------------------------------------------*/
FoamFile
{
    version     2.0;
    format      ascii;
    arch        "LSB;label=32;scalar=64";
    class       surfaceScalarField;
    location    "0.2";
    object      phi;
}
// * * * * * * * * * * * * * * * * * * * * * * * * * * * * * * * * * * * * * //

dimensions      [0 3 -1 0 0 0 0];

oriented        oriented;

internalField   nonuniform List<scalar> 
445
(
1.33229e-05
5.95582e-10
1.33226e-05
3.31497e-10
1.33226e-05
4.16514e-11
1.33227e-05
-1.61965e-10
1.3323e-05
-2.54112e-10
1.33232e-05
-2.26162e-10
1.33233e-05
-1.0794e-10
1.33233e-05
4.02607e-11
1.33232e-05
1.39181e-10
1.3323e-05
1.39936e-10
1.3323e-05
5.87716e-11
1.3323e-05
-3.26729e-11
1.33231e-05
-6.60764e-11
1.33231e-05
-3.14422e-11
1.33231e-05
2.38297e-11
1.3323e-05
4.08431e-11
1.3323e-05
-2.40052e-12
1.33231e-05
-7.12303e-11
1.33232e-05
-1.14327e-10
1.33233e-05
-9.315e-11
1.33233e-05
-1.25858e-11
1.33232e-05
8.53724e-11
1.33231e-05
1.4844e-10
1.3323e-05
1.42532e-10
1.33229e-05
6.79341e-11
1.33229e-05
-4.20942e-11
1.33231e-05
-1.36327e-10
1.33232e-05
-1.69967e-10
1.33234e-05
-1.25405e-10
1.33234e-05
-2.25819e-11
1.33233e-05
8.85641e-11
1.33231e-05
1.51831e-10
1.3323e-05
1.35438e-10
1.3323e-05
5.26095e-11
1.3323e-05
-4.25601e-11
1.33231e-05
-8.77643e-11
1.33231e-05
-5.68406e-11
1.33231e-05
1.72111e-11
1.33231e-05
6.4977e-11
1.3323e-05
3.84769e-11
1.33231e-05
-4.46603e-11
1.33232e-05
-1.12709e-10
1.33233e-05
-1.05433e-10
1.33233e-05
-2.80195e-11
1.33233e-05
5.8893e-11
1.33232e-05
8.95537e-11
1.33231e-05
3.9845e-11
1.33232e-05
-6.49206e-11
1.33234e-05
-1.97378e-10
-3.54523e-10
2.84809e-05
1.36284e-09
2.84803e-05
8.72797e-10
2.848e-05
3.1137e-10
2.848e-05
-1.5988e-10
2.84802e-05
-4.17876e-10
2.84804e-05
-4.16075e-10
2.84805e-05
-2.06492e-10
2.84805e-05
7.98673e-11
2.84804e-05
2.79572e-10
2.84802e-05
2.86054e-10
2.84801e-05
1.27005e-10
2.84802e-05
-5.67056e-11
2.84802e-05
-1.2873e-10
2.84803e-05
-6.49286e-11
2.84803e-05
4.13663e-11
2.84802e-05
7.20957e-11
2.84802e-05
-1.57019e-11
2.84803e-05
-1.59037e-10
2.84804e-05
-2.46303e-10
2.84805e-05
-1.99828e-10
2.84806e-05
-2.84192e-11
2.84805e-05
1.81765e-10
2.84803e-05
3.19615e-10
2.84801e-05
3.11265e-10
2.84801e-05
1.54962e-10
2.84801e-05
-7.97626e-11
2.84802e-05
-2.85198e-10
2.84804e-05
-3.64327e-10
2.84806e-05
-2.77318e-10
2.84806e-05
-6.33734e-11
2.84805e-05
1.74109e-10
2.84804e-05
3.16757e-10
2.84802e-05
2.94628e-10
2.84801e-05
1.30398e-10
2.84802e-05
-6.73997e-11
2.84803e-05
-1.70391e-10
2.84803e-05
-1.20382e-10
2.84803e-05
2.0733e-11
2.84803e-05
1.14805e-10
2.84802e-05
6.26022e-11
2.84803e-05
-1.02461e-10
2.84804e-05
-2.3784e-10
2.84806e-05
-2.19549e-10
2.84806e-05
-5.39821e-11
2.84805e-05
1.37525e-10
2.84804e-05
2.3086e-10
2.84802e-05
1.80699e-10
2.84801e-05
2.45475e-11
2.84801e-05
-1.76514e-10
-3.60011e-10
3.33773e-05
1.69085e-09
3.33771e-05
1.12836e-09
3.33768e-05
5.3846e-10
3.33766e-05
2.21608e-11
3.33765e-05
-2.96054e-10
3.33764e-05
-3.47779e-10
3.33764e-05
-1.74497e-10
3.33764e-05
9.08854e-11
3.33764e-05
2.79604e-10
3.33764e-05
2.80738e-10
3.33764e-05
1.19104e-10
3.33764e-05
-6.57048e-11
3.33764e-05
-1.36977e-10
3.33764e-05
-7.00023e-11
3.33764e-05
4.13126e-11
3.33764e-05
7.68501e-11
3.33764e-05
-8.11016e-12
3.33764e-05
-1.53498e-10
3.33764e-05
-2.45967e-10
3.33764e-05
-2.05353e-10
3.33764e-05
-3.7076e-11
3.33764e-05
1.74316e-10
3.33764e-05
3.17724e-10
3.33764e-05
3.16626e-10
3.33764e-05
1.66001e-10
3.33764e-05
-6.71257e-11
3.33764e-05
-2.7584e-10
3.33764e-05
-3.61825e-10
3.33764e-05
-2.82533e-10
3.33764e-05
-7.3997e-11
3.33764e-05
1.62282e-10
3.33764e-05
3.08386e-10
3.33764e-05
2.92665e-10
3.33764e-05
1.34842e-10
3.33764e-05
-5.95761e-11
3.33764e-05
-1.6358e-10
3.33764e-05
-1.18069e-10
3.33764e-05
1.79052e-11
3.33764e-05
1.08589e-10
3.33764e-05
5.53073e-11
3.33764e-05
-1.09688e-10
3.33764e-05
-2.43719e-10
3.33765e-05
-2.20963e-10
3.33765e-05
-4.54414e-11
3.33764e-05
1.66317e-10
3.33764e-05
2.95589e-10
3.33762e-05
3.02862e-10
3.3376e-05
2.12559e-10
3.33758e-05
7.81189e-11
-1.01678e-11
2.848e-05
1.05383e-09
2.84804e-05
6.61843e-10
2.84806e-05
3.22952e-10
2.84806e-05
5.91591e-11
2.84804e-05
-1.11387e-10
2.84802e-05
-1.48379e-10
2.84801e-05
-7.54357e-11
2.84801e-05
4.60854e-11
2.84803e-05
1.32257e-10
2.84804e-05
1.29589e-10
2.84805e-05
4.93498e-11
2.84805e-05
-4.03295e-11
2.84804e-05
-7.23921e-11
2.84804e-05
-3.5352e-11
2.84804e-05
2.40121e-11
2.84805e-05
4.57091e-11
2.84804e-05
6.54336e-12
2.84804e-05
-6.47016e-11
2.84802e-05
-1.13298e-10
2.84801e-05
-9.95158e-11
2.84801e-05
-2.41925e-11
2.84802e-05
7.42297e-11
2.84804e-05
1.43658e-10
2.84805e-05
1.47498e-10
2.84806e-05
8.16411e-11
2.84806e-05
-2.4534e-11
2.84804e-05
-1.22043e-10
2.84802e-05
-1.6481e-10
2.84801e-05
-1.31511e-10
2.848e-05
-3.72645e-11
2.84801e-05
7.16233e-11
2.84803e-05
1.39859e-10
2.84805e-05
1.3304e-10
2.84805e-05
5.95662e-11
2.84805e-05
-3.13068e-11
2.84804e-05
-7.8927e-11
2.84804e-05
-5.50282e-11
2.84804e-05
1.23348e-11
2.84804e-05
5.71521e-11
2.84805e-05
3.14161e-11
2.84804e-05
-5.0926e-11
2.84803e-05
-1.18173e-10
2.84802e-05
-1.08166e-10
2.84801e-05
-2.14872e-11
2.84802e-05
8.57977e-11
2.84804e-05
1.57282e-10
2.84805e-05
1.78673e-10
2.84805e-05
1.6239e-10
2.84805e-05
1.32824e-10
1.42831e-10
1.33222e-05
1.33229e-05
1.33232e-05
1.33233e-05
1.33231e-05
1.3323e-05
1.33229e-05
1.3323e-05
1.33231e-05
1.33232e-05
1.33233e-05
1.33233e-05
1.33232e-05
1.33232e-05
1.33232e-05
1.33232e-05
1.33232e-05
1.33232e-05
1.3323e-05
1.33229e-05
1.33229e-05
1.3323e-05
1.33231e-05
1.33233e-05
1.33234e-05
1.33233e-05
1.33232e-05
1.33231e-05
1.33229e-05
1.33229e-05
1.3323e-05
1.33231e-05
1.33232e-05
1.33233e-05
1.33233e-05
1.33232e-05
1.33231e-05
1.33231e-05
1.33232e-05
1.33232e-05
1.33232e-05
1.33231e-05
1.3323e-05
1.33229e-05
1.3323e-05
1.33232e-05
1.33234e-05
1.33235e-05
1.33237e-05
)
;

boundaryField
{
    inlet
    {
        type            calculated;
        value           nonuniform List<scalar> 5(-1.33235e-05 -2.84816e-05 -3.33777e-05 -2.84793e-05 -1.33212e-05);
    }
    outlet
    {
        type            calculated;
        value           nonuniform List<scalar> 5(1.33237e-05 2.84801e-05 3.33754e-05 2.84803e-05 1.33238e-05);
    }
    walls
    {
        type            calculated;
        value           uniform 0;
    }
    frontAndBack
    {
        type            empty;
    }
}


// ************************************************************************* //
