/*--------------------------------*- C++ -*----------------------------------*\
| =========                 |                                                 |
| \\      /  F ield         | OpenFOAM: The Open Source CFD Toolbox           |
|  \\    /   O peration     | Version:  2406                                  |
|   \\  /    A nd           | Website:  www.openfoam.com                      |
|    \\/     M anipulation  |                                                 |
\*---------------------------------------------------------------------------*/
FoamFile
{
    version     2.0;
    format      ascii;
    arch        "LSB;label=32;scalar=64";
    class       volVectorField;
    location    "0.2";
    object      U;
}
// * * * * * * * * * * * * * * * * * * * * * * * * * * * * * * * * * * * * * //

dimensions      [0 1 -1 0 0 0 0];

internalField   nonuniform List<vector> 
250
(
(0.0666163 1.19232e-06 0)
(0.0666139 5.32902e-07 0)
(0.0666126 -1.67933e-07 0)
(0.066613 -6.44724e-07 0)
(0.0666142 -7.94423e-07 0)
(0.0666155 -6.41427e-07 0)
(0.0666164 -2.85549e-07 0)
(0.0666166 1.13839e-07 0)
(0.0666162 3.65665e-07 0)
(0.0666155 3.53893e-07 0)
(0.0666149 1.35067e-07 0)
(0.0666149 -9.70283e-08 0)
(0.0666152 -1.70664e-07 0)
(0.0666155 -6.98625e-08 0)
(0.0666155 7.38912e-08 0)
(0.0666153 1.10921e-07 0)
(0.0666152 -4.16961e-10 0)
(0.0666153 -1.82798e-07 0)
(0.0666158 -2.85704e-07 0)
(0.0666164 -2.21524e-07 0)
(0.0666167 -1.25318e-08 0)
(0.0666165 2.30654e-07 0)
(0.0666158 3.75547e-07 0)
(0.0666151 3.42854e-07 0)
(0.0666145 1.42291e-07 0)
(0.0666144 -1.34831e-07 0)
(0.0666149 -3.60307e-07 0)
(0.0666158 -4.2517e-07 0)
(0.0666166 -2.93798e-07 0)
(0.066617 -2.49045e-08 0)
(0.0666168 2.50427e-07 0)
(0.0666161 3.92725e-07 0)
(0.0666153 3.29018e-07 0)
(0.0666148 1.03235e-07 0)
(0.0666148 -1.39534e-07 0)
(0.0666152 -2.40668e-07 0)
(0.0666156 -1.41432e-07 0)
(0.0666158 6.23294e-08 0)
(0.0666155 1.86483e-07 0)
(0.0666152 1.10877e-07 0)
(0.0666152 -1.08195e-07 0)
(0.0666156 -2.81582e-07 0)
(0.0666162 -2.57865e-07 0)
(0.0666166 -6.34879e-08 0)
(0.0666165 1.28658e-07 0)
(0.066616 1.52432e-07 0)
(0.0666157 -3.77733e-08 0)
(0.0666157 -3.88159e-07 0)
(0.0666165 -8.31699e-07 0)
(0.0666177 -1.36958e-06 0)
(0.142407 4.77921e-06 0)
(0.142403 2.81768e-06 0)
(0.142401 5.66994e-07 0)
(0.1424 -1.23093e-06 0)
(0.1424 -2.09481e-06 0)
(0.142402 -1.91308e-06 0)
(0.142402 -9.34647e-07 0)
(0.142403 3.0614e-07 0)
(0.142402 1.15126e-06 0)
(0.142401 1.17836e-06 0)
(0.142401 5.17865e-07 0)
(0.142401 -2.38595e-07 0)
(0.142401 -5.27192e-07 0)
(0.142401 -2.56125e-07 0)
(0.142401 1.83919e-07 0)
(0.142401 3.07852e-07 0)
(0.142401 -5.1377e-08 0)
(0.142401 -6.39812e-07 0)
(0.142402 -9.91094e-07 0)
(0.142403 -7.94368e-07 0)
(0.142403 -9.42581e-08 0)
(0.142403 7.51513e-07 0)
(0.142402 1.2933e-06 0)
(0.142401 1.23818e-06 0)
(0.1424 5.8935e-07 0)
(0.1424 -3.6352e-07 0)
(0.142401 -1.18141e-06 0)
(0.142402 -1.47634e-06 0)
(0.142403 -1.09694e-06 0)
(0.142403 -2.13331e-07 0)
(0.142403 7.47196e-07 0)
(0.142402 1.30439e-06 0)
(0.142401 1.18326e-06 0)
(0.142401 4.90144e-07 0)
(0.142401 -3.21613e-07 0)
(0.142401 -7.24976e-07 0)
(0.142402 -4.91688e-07 0)
(0.142402 1.11195e-07 0)
(0.142401 5.07311e-07 0)
(0.142401 2.91122e-07 0)
(0.142401 -3.93574e-07 0)
(0.142402 -9.55846e-07 0)
(0.142403 -8.90016e-07 0)
(0.142403 -2.35577e-07 0)
(0.142403 4.89593e-07 0)
(0.142402 7.5899e-07 0)
(0.142401 3.93076e-07 0)
(0.142401 -4.54036e-07 0)
(0.1424 -1.52229e-06 0)
(0.1424 -2.65218e-06 0)
(0.166888 8.68996e-06 0)
(0.166886 5.78573e-06 0)
(0.166885 2.52165e-06 0)
(0.166883 -3.04355e-07 0)
(0.166883 -1.98212e-06 0)
(0.166882 -2.16562e-06 0)
(0.166882 -1.10219e-06 0)
(0.166882 4.64334e-07 0)
(0.166882 1.58408e-06 0)
(0.166882 1.62811e-06 0)
(0.166882 7.31383e-07 0)
(0.166882 -3.19188e-07 0)
(0.166882 -7.43354e-07 0)
(0.166882 -3.90736e-07 0)
(0.166882 2.18611e-07 0)
(0.166882 4.09046e-07 0)
(0.166882 -7.63401e-08 0)
(0.166882 -8.93051e-07 0)
(0.166882 -1.40732e-06 0)
(0.166882 -1.16508e-06 0)
(0.166882 -1.98943e-07 0)
(0.166882 1.00751e-06 0)
(0.166882 1.82084e-06 0)
(0.166882 1.80608e-06 0)
(0.166882 9.37042e-07 0)
(0.166882 -4.01726e-07 0)
(0.166882 -1.59506e-06 0)
(0.166882 -2.08183e-06 0)
(0.166882 -1.61989e-06 0)
(0.166882 -4.18157e-07 0)
(0.166882 9.41662e-07 0)
(0.166882 1.78176e-06 0)
(0.166882 1.69241e-06 0)
(0.166882 7.8639e-07 0)
(0.166882 -3.32866e-07 0)
(0.166882 -9.36544e-07 0)
(0.166882 -6.84112e-07 0)
(0.166882 9.15481e-08 0)
(0.166882 6.16997e-07 0)
(0.166882 3.27286e-07 0)
(0.166882 -6.02803e-07 0)
(0.166882 -1.37016e-06 0)
(0.166882 -1.26268e-06 0)
(0.166882 -2.96776e-07 0)
(0.166882 8.57145e-07 0)
(0.166882 1.50648e-06 0)
(0.166882 1.39961e-06 0)
(0.166881 7.00136e-07 0)
(0.166879 -2.46858e-07 0)
(0.166878 -1.0413e-06 0)
(0.142398 8.33272e-06 0)
(0.142401 5.51922e-06 0)
(0.142403 2.80834e-06 0)
(0.142403 5.5491e-07 0)
(0.142402 -8.72519e-07 0)
(0.142401 -1.21583e-06 0)
(0.1424 -6.14394e-07 0)
(0.1424 3.9981e-07 0)
(0.142401 1.13305e-06 0)
(0.142402 1.1193e-06 0)
(0.142403 4.50428e-07 0)
(0.142403 -3.06041e-07 0)
(0.142402 -5.89183e-07 0)
(0.142402 -2.98357e-07 0)
(0.142402 1.7926e-07 0)
(0.142402 3.45139e-07 0)
(0.142402 8.10552e-09 0)
(0.142402 -5.89402e-07 0)
(0.142401 -9.8686e-07 0)
(0.142401 -8.49065e-07 0)
(0.1424 -1.87066e-07 0)
(0.142401 6.64855e-07 0)
(0.142401 1.25956e-06 0)
(0.142402 1.28215e-06 0)
(0.142403 7.01097e-07 0)
(0.142403 -2.25217e-07 0)
(0.142403 -1.07086e-06 0)
(0.142402 -1.43778e-06 0)
(0.142401 -1.14462e-06 0)
(0.1424 -3.24911e-07 0)
(0.1424 6.2075e-07 0)
(0.142401 1.21625e-06 0)
(0.142402 1.16623e-06 0)
(0.142403 5.41314e-07 0)
(0.142403 -2.3797e-07 0)
(0.142402 -6.57487e-07 0)
(0.142402 -4.73349e-07 0)
(0.142402 7.92107e-08 0)
(0.142402 4.48199e-07 0)
(0.142402 2.28604e-07 0)
(0.142402 -4.49786e-07 0)
(0.142402 -1.00256e-06 0)
(0.142401 -9.07046e-07 0)
(0.142401 -1.68311e-07 0)
(0.142401 7.42895e-07 0)
(0.142401 1.36085e-06 0)
(0.142402 1.53705e-06 0)
(0.142403 1.36353e-06 0)
(0.142403 1.05431e-06 0)
(0.142402 9.92666e-07 0)
(0.0666084 3.20229e-06 0)
(0.0666126 1.98197e-06 0)
(0.0666155 9.94859e-07 0)
(0.0666164 2.59945e-07 0)
(0.0666161 -1.93336e-07 0)
(0.0666154 -3.17698e-07 0)
(0.0666147 -1.54553e-07 0)
(0.0666147 1.32989e-07 0)
(0.0666152 3.34951e-07 0)
(0.0666159 3.11175e-07 0)
(0.0666164 9.60955e-08 0)
(0.0666164 -1.30962e-07 0)
(0.0666161 -2.00085e-07 0)
(0.0666158 -8.91948e-08 0)
(0.0666158 7.37651e-08 0)
(0.066616 1.32238e-07 0)
(0.0666162 2.98367e-08 0)
(0.066616 -1.56831e-07 0)
(0.0666155 -2.85359e-07 0)
(0.0666149 -2.53804e-07 0)
(0.0666146 -6.51454e-08 0)
(0.0666147 1.81779e-07 0)
(0.0666153 3.56909e-07 0)
(0.0666161 3.68351e-07 0)
(0.0666167 2.0601e-07 0)
(0.0666169 -5.69734e-08 0)
(0.0666165 -2.99117e-07 0)
(0.0666157 -4.05622e-07 0)
(0.0666149 -3.23293e-07 0)
(0.0666144 -8.97679e-08 0)
(0.0666146 1.79241e-07 0)
(0.0666151 3.45533e-07 0)
(0.0666159 3.23584e-07 0)
(0.0666164 1.36079e-07 0)
(0.0666165 -9.05877e-08 0)
(0.0666161 -2.0403e-07 0)
(0.0666157 -1.34628e-07 0)
(0.0666156 4.11613e-08 0)
(0.0666158 1.52599e-07 0)
(0.0666161 7.76655e-08 0)
(0.0666161 -1.37154e-07 0)
(0.0666156 -3.07896e-07 0)
(0.066615 -2.72966e-07 0)
(0.0666146 -3.83056e-08 0)
(0.0666148 2.49875e-07 0)
(0.0666155 4.60364e-07 0)
(0.0666164 5.6459e-07 0)
(0.0666173 5.91906e-07 0)
(0.0666181 6.04125e-07 0)
(0.0666186 7.46512e-07 0)
)
;

boundaryField
{
    inlet
    {
        type            zeroGradient;
    }
    outlet
    {
        type            zeroGradient;
    }
    walls
    {
        type            noSlip;
    }
    frontAndBack
    {
        type            empty;
    }
}


// ************************************************************************* //
