/*--------------------------------*- C++ -*----------------------------------*\
| =========                 |                                                 |
| \\      /  F ield         | OpenFOAM: The Open Source CFD Toolbox           |
|  \\    /   O peration     | Version:  2406                                  |
|   \\  /    A nd           | Website:  www.openfoam.com                      |
|    \\/     M anipulation  |                                                 |
\*---------------------------------------------------------------------------*/
FoamFile
{
    version     2.0;
    format      ascii;
    arch        "LSB;label=32;scalar=64";
    class       surfaceScalarField;
    location    "0.3";
    object      phi;
}
// * * * * * * * * * * * * * * * * * * * * * * * * * * * * * * * * * * * * * //

dimensions      [0 3 -1 0 0 0 0];

oriented        oriented;

internalField   nonuniform List<scalar> 
220
(
1.45289e-05
-2.86872e-11
1.45289e-05
-1.58431e-11
1.45289e-05
1.93839e-11
1.45289e-05
-1.12189e-11
1.45289e-05
-8.22815e-12
1.45289e-05
7.66201e-12
1.45289e-05
4.4138e-12
1.45289e-05
-5.89563e-14
1.4529e-05
-3.60468e-12
1.4529e-05
-3.32512e-12
1.4529e-05
3.20803e-12
1.4529e-05
7.19951e-12
1.4529e-05
1.94735e-12
1.4529e-05
-5.32782e-12
1.4529e-05
-4.62137e-12
1.4529e-05
2.25429e-12
1.4529e-05
6.39044e-12
1.4529e-05
4.49516e-12
1.4529e-05
-2.53774e-12
1.4529e-05
-1.03783e-11
1.4529e-05
1.00492e-11
1.4529e-05
-2.30821e-12
1.4529e-05
6.12013e-12
1.4529e-05
5.95237e-12
-1.75977e-11
3.16372e-05
-2.1767e-11
3.16372e-05
-8.31861e-12
3.16372e-05
1.7183e-11
3.16372e-05
-1.05988e-11
3.16372e-05
-1.6202e-11
3.16372e-05
9.19279e-12
3.16372e-05
1.3866e-11
3.16372e-05
2.35505e-12
3.16372e-05
-8.42749e-12
3.16372e-05
-7.32197e-12
3.16372e-05
6.7208e-12
3.16372e-05
1.55149e-11
3.16372e-05
5.01311e-12
3.16372e-05
-1.15775e-11
3.16372e-05
-1.17368e-11
3.16372e-05
3.74505e-12
3.16372e-05
1.3721e-11
3.16372e-05
8.22464e-12
3.16372e-05
-5.10855e-12
3.16372e-05
-1.70081e-11
3.16372e-05
6.92002e-12
3.16372e-05
8.53759e-12
3.16372e-05
7.35314e-12
3.16372e-05
5.42168e-13
-1.95119e-11
3.72784e-05
3.18405e-11
3.72784e-05
1.69689e-11
3.72784e-05
-8.01371e-12
3.72785e-05
-1.26152e-12
3.72785e-05
-1.40352e-11
3.72785e-05
4.10869e-12
3.72785e-05
1.39956e-11
3.72785e-05
3.33611e-12
3.72785e-05
-8.75204e-12
3.72785e-05
-8.23756e-12
3.72785e-05
5.61407e-12
3.72785e-05
1.48338e-11
3.72785e-05
5.18994e-12
3.72785e-05
-1.15631e-11
3.72785e-05
-1.26687e-11
3.72785e-05
2.42769e-12
3.72785e-05
1.26148e-11
3.72785e-05
8.23014e-12
3.72785e-05
-4.90959e-12
3.72785e-05
-1.48685e-11
3.72785e-05
-3.28923e-12
3.72785e-05
2.41284e-11
3.72785e-05
-3.21622e-12
3.72785e-05
-1.31037e-11
7.39449e-12
3.16372e-05
3.30105e-11
3.16372e-05
1.90464e-11
3.16372e-05
-1.45873e-11
3.16372e-05
4.42079e-12
3.16372e-05
-6.55444e-12
3.16372e-05
-2.68672e-14
3.16372e-05
7.32405e-12
3.16372e-05
1.99436e-12
3.16372e-05
-3.86074e-12
3.16372e-05
-3.57156e-12
3.16372e-05
2.40526e-12
3.16372e-05
6.69985e-12
3.16372e-05
2.85237e-12
3.16372e-05
-4.84841e-12
3.16372e-05
-5.80956e-12
3.16372e-05
9.69237e-13
3.16372e-05
5.31721e-12
3.16372e-05
3.31319e-12
3.16372e-05
-1.28301e-12
3.16372e-05
-5.18349e-12
3.16372e-05
-7.31264e-12
3.16372e-05
1.8167e-11
3.16372e-05
-4.76368e-12
3.16372e-05
-1.1802e-11
1.16601e-11
1.45289e-05
1.45289e-05
1.45289e-05
1.45289e-05
1.45289e-05
1.45289e-05
1.45289e-05
1.4529e-05
1.4529e-05
1.4529e-05
1.4529e-05
1.4529e-05
1.4529e-05
1.4529e-05
1.4529e-05
1.4529e-05
1.4529e-05
1.4529e-05
1.4529e-05
1.4529e-05
1.4529e-05
1.4529e-05
1.4529e-05
1.4529e-05
)
;

boundaryField
{
    inlet
    {
        type            calculated;
        value           nonuniform List<scalar> 5(-1.45289e-05 -3.16372e-05 -3.72785e-05 -3.16372e-05 -1.45289e-05);
    }
    outlet
    {
        type            calculated;
        value           nonuniform List<scalar> 5(1.4529e-05 3.16372e-05 3.72785e-05 3.16372e-05 1.4529e-05);
    }
    walls
    {
        type            calculated;
        value           uniform 0;
    }
    frontAndBack
    {
        type            empty;
    }
}


// ************************************************************************* //
