/*--------------------------------*- C++ -*----------------------------------*\
| =========                 |                                                 |
| \\      /  F ield         | OpenFOAM: The Open Source CFD Toolbox           |
|  \\    /   O peration     | Version:  2406                                  |
|   \\  /    A nd           | Website:  www.openfoam.com                      |
|    \\/     M anipulation  |                                                 |
\*---------------------------------------------------------------------------*/
FoamFile
{
    version     2.0;
    format      ascii;
    arch        "LSB;label=32;scalar=64";
    class       volVectorField;
    location    "0.3";
    object      U;
}
// * * * * * * * * * * * * * * * * * * * * * * * * * * * * * * * * * * * * * //

dimensions      [0 1 -1 0 0 0 0];

internalField   nonuniform List<vector> 
125
(
(0.0726448 -5.80799e-08 0)
(0.0726443 -3.05637e-08 0)
(0.0726449 3.08079e-08 0)
(0.0726446 -1.55037e-08 0)
(0.0726447 -1.23139e-08 0)
(0.0726447 9.49608e-09 0)
(0.0726447 5.75979e-09 0)
(0.0726447 -1.17221e-09 0)
(0.0726447 -5.27851e-09 0)
(0.0726448 -4.04752e-09 0)
(0.0726448 4.63617e-09 0)
(0.0726448 9.25435e-09 0)
(0.0726448 1.91541e-09 0)
(0.0726448 -7.25278e-09 0)
(0.0726449 -5.67243e-09 0)
(0.0726449 3.73507e-09 0)
(0.0726449 8.70555e-09 0)
(0.0726448 4.79668e-09 0)
(0.0726448 -3.52407e-09 0)
(0.0726449 -1.20647e-08 0)
(0.0726448 1.47249e-08 0)
(0.0726451 -7.59124e-09 0)
(0.0726445 1.18698e-08 0)
(0.0726452 1.10707e-08 0)
(0.0726447 -3.31632e-08 0)
(0.158186 -9.97681e-08 0)
(0.158185 -4.93874e-08 0)
(0.158186 5.65698e-08 0)
(0.158186 -2.98399e-08 0)
(0.158186 -3.58307e-08 0)
(0.158186 2.1641e-08 0)
(0.158186 2.54954e-08 0)
(0.158186 2.48753e-09 0)
(0.158186 -1.74749e-08 0)
(0.158186 -1.48553e-08 0)
(0.158186 1.3956e-08 0)
(0.158186 3.1145e-08 0)
(0.158186 9.04763e-09 0)
(0.158186 -2.37355e-08 0)
(0.158186 -2.27069e-08 0)
(0.158186 8.76983e-09 0)
(0.158186 2.83042e-08 0)
(0.158186 1.65669e-08 0)
(0.158186 -1.11412e-08 0)
(0.158186 -3.56219e-08 0)
(0.158186 2.50101e-08 0)
(0.158187 8.65967e-10 0)
(0.158185 2.38258e-08 0)
(0.158187 1.54914e-08 0)
(0.158186 -6.39856e-08 0)
(0.186393 1.36362e-08 0)
(0.186391 1.25739e-08 0)
(0.186393 1.1897e-08 0)
(0.186392 -1.65299e-08 0)
(0.186392 -4.16312e-08 0)
(0.186392 1.75019e-08 0)
(0.186392 3.91037e-08 0)
(0.186392 9.00664e-09 0)
(0.186392 -2.42365e-08 0)
(0.186392 -2.2634e-08 0)
(0.186392 1.70388e-08 0)
(0.186392 4.29018e-08 0)
(0.186393 1.4807e-08 0)
(0.186393 -3.25707e-08 0)
(0.186393 -3.51254e-08 0)
(0.186393 8.03654e-09 0)
(0.186393 3.7452e-08 0)
(0.186393 2.38324e-08 0)
(0.186393 -1.46458e-08 0)
(0.186393 -4.45684e-08 0)
(0.186392 4.78389e-09 0)
(0.186393 4.31012e-08 0)
(0.186392 5.82903e-09 0)
(0.186394 -1.60093e-08 0)
(0.186392 -1.58379e-08 0)
(0.158186 1.19103e-07 0)
(0.158185 6.6464e-08 0)
(0.158186 -3.86274e-08 0)
(0.158186 5.38759e-09 0)
(0.158186 -2.34967e-08 0)
(0.158186 4.6243e-09 0)
(0.158186 2.83668e-08 0)
(0.158186 8.22446e-09 0)
(0.158186 -1.67374e-08 0)
(0.158186 -1.6522e-08 0)
(0.158186 1.07759e-08 0)
(0.158186 2.98003e-08 0)
(0.158186 1.15051e-08 0)
(0.158186 -2.22536e-08 0)
(0.158186 -2.55365e-08 0)
(0.158186 4.07335e-09 0)
(0.158186 2.45768e-08 0)
(0.158186 1.67962e-08 0)
(0.158186 -8.50318e-09 0)
(0.158186 -2.80079e-08 0)
(0.158186 -1.59483e-08 0)
(0.158187 6.27162e-08 0)
(0.158185 -1.65776e-08 0)
(0.158187 -3.92807e-08 0)
(0.158186 4.01589e-08 0)
(0.0726448 6.37924e-08 0)
(0.0726443 3.50637e-08 0)
(0.0726449 -2.47994e-08 0)
(0.0726446 7.49706e-09 0)
(0.0726447 -5.2927e-09 0)
(0.0726447 -6.44589e-10 0)
(0.0726447 8.91783e-09 0)
(0.0726448 2.83369e-09 0)
(0.0726448 -4.69448e-09 0)
(0.0726448 -4.64271e-09 0)
(0.0726448 3.12596e-09 0)
(0.0726448 8.76293e-09 0)
(0.0726448 3.73011e-09 0)
(0.0726448 -6.19759e-09 0)
(0.0726448 -7.36863e-09 0)
(0.0726448 1.15473e-09 0)
(0.0726448 6.72782e-09 0)
(0.0726449 4.65702e-09 0)
(0.0726449 -1.55794e-09 0)
(0.0726449 -6.93459e-09 0)
(0.0726448 -1.02757e-08 0)
(0.0726451 2.80024e-08 0)
(0.0726446 -1.05959e-08 0)
(0.0726452 -1.88642e-08 0)
(0.0726447 2.51792e-08 0)
)
;

boundaryField
{
    inlet
    {
        type            zeroGradient;
    }
    outlet
    {
        type            zeroGradient;
    }
    walls
    {
        type            noSlip;
    }
    frontAndBack
    {
        type            empty;
    }
}


// ************************************************************************* //
