/*--------------------------------*- C++ -*----------------------------------*\
| =========                 |                                                 |
| \\      /  F ield         | OpenFOAM: The Open Source CFD Toolbox           |
|  \\    /   O peration     | Version:  2406                                  |
|   \\  /    A nd           | Website:  www.openfoam.com                      |
|    \\/     M anipulation  |                                                 |
\*---------------------------------------------------------------------------*/
FoamFile
{
    version     2.0;
    format      ascii;
    arch        "LSB;label=32;scalar=64";
    class       surfaceScalarField;
    location    "0.4";
    object      phi;
}
// * * * * * * * * * * * * * * * * * * * * * * * * * * * * * * * * * * * * * //

dimensions      [0 3 -1 0 0 0 0];

oriented        oriented;

internalField   nonuniform List<scalar> 
1890
(
3.75887e-06
-1.81321e-12
3.75888e-06
-3.05775e-12
3.75888e-06
-2.17411e-12
3.75888e-06
5.45475e-13
3.75888e-06
2.9332e-12
3.75888e-06
3.95002e-12
3.75888e-06
3.06847e-12
3.75888e-06
7.68039e-13
3.75888e-06
-1.60814e-12
3.75888e-06
-2.62454e-12
3.75888e-06
-1.82529e-12
3.75888e-06
2.7745e-14
3.75888e-06
1.67372e-12
3.75888e-06
2.27752e-12
3.75888e-06
1.76192e-12
3.75888e-06
5.28245e-13
3.75888e-06
-8.83831e-13
3.75888e-06
-1.97746e-12
3.75888e-06
-2.36138e-12
3.75888e-06
-1.9261e-12
3.75888e-06
-8.97364e-13
3.75888e-06
2.48605e-13
3.75888e-06
9.98874e-13
3.75888e-06
1.10731e-12
3.75888e-06
6.72565e-13
3.75888e-06
9.18213e-14
3.75888e-06
-2.02422e-13
3.75888e-06
-8.79415e-14
3.75888e-06
1.71859e-13
3.75888e-06
1.92638e-13
3.75888e-06
-1.62789e-13
3.75888e-06
-6.57324e-13
3.75888e-06
-8.62837e-13
3.75888e-06
-5.49686e-13
3.75888e-06
1.23067e-13
3.75888e-06
7.60892e-13
3.75888e-06
9.93667e-13
3.75888e-06
7.79937e-13
3.75888e-06
3.40186e-13
3.75888e-06
-5.3551e-14
3.75888e-06
-3.20381e-13
3.75888e-06
-5.55342e-13
3.75888e-06
-7.66717e-13
3.75888e-06
-8.42028e-13
3.75888e-06
-6.27187e-13
3.75888e-06
-1.29052e-13
3.75888e-06
4.62547e-13
3.75888e-06
8.74304e-13
3.75888e-06
9.48618e-13
3.75888e-06
6.8967e-13
3.75888e-06
3.21928e-13
3.75888e-06
5.13175e-14
3.75888e-06
-5.83876e-14
3.75888e-06
-9.15783e-14
3.75888e-06
-1.12436e-13
3.75888e-06
-7.94567e-14
3.75888e-06
5.82823e-14
3.75888e-06
2.58043e-13
3.75888e-06
3.69512e-13
3.75888e-06
2.63634e-13
3.75888e-06
-1.76844e-14
3.75888e-06
-2.77695e-13
3.75888e-06
-3.18786e-13
3.75888e-06
-1.33205e-13
3.75888e-06
9.00333e-14
3.75888e-06
1.30723e-13
3.75888e-06
-4.32759e-14
3.75888e-06
-2.75598e-13
3.75888e-06
-3.41514e-13
3.75888e-06
-1.85417e-13
3.75887e-06
4.81989e-14
3.75887e-06
1.63617e-13
3.75887e-06
6.82424e-14
3.75887e-06
-1.54862e-13
3.75887e-06
-3.34375e-13
3.75887e-06
-3.60942e-13
3.75887e-06
-2.54176e-13
3.75887e-06
-1.24005e-13
3.75887e-06
-4.91543e-14
3.75887e-06
-1.70979e-14
3.75887e-06
2.81615e-14
3.75887e-06
1.34616e-13
3.75887e-06
2.56378e-13
3.75887e-06
3.46389e-13
3.75887e-06
3.98235e-13
3.75887e-06
4.31397e-13
3.75887e-06
4.37072e-13
3.75887e-06
3.62276e-13
3.75887e-06
1.42964e-13
3.75887e-06
-1.76951e-13
3.75887e-06
-4.3551e-13
3.75887e-06
-3.94787e-13
3.75887e-06
5.14012e-14
3.75887e-06
6.69829e-13
3.75887e-06
1.04528e-12
3.75887e-06
9.74178e-13
3.75887e-06
7.27147e-13
3.75887e-06
7.38676e-13
3.75887e-06
1.20537e-12
1.48032e-12
9.75235e-06
-4.45817e-14
9.75235e-06
6.90975e-13
9.75236e-06
1.88514e-12
9.75235e-06
2.83217e-12
9.75235e-06
2.92154e-12
9.75235e-06
2.59142e-12
9.75236e-06
2.16682e-12
9.75236e-06
1.39781e-12
9.75236e-06
3.40498e-13
9.75235e-06
-4.29763e-13
9.75235e-06
-4.22722e-13
9.75235e-06
2.36892e-13
9.75235e-06
9.41248e-13
9.75235e-06
9.9748e-13
9.75235e-06
8.39992e-14
9.75236e-06
-1.34461e-12
9.75236e-06
-2.70045e-12
9.75235e-06
-3.52872e-12
9.75235e-06
-3.58497e-12
9.75235e-06
-2.84191e-12
9.75235e-06
-1.37621e-12
9.75235e-06
4.07843e-13
9.75235e-06
1.87265e-12
9.75235e-06
2.56348e-12
9.75235e-06
2.30984e-12
9.75235e-06
1.33996e-12
9.75235e-06
2.04421e-13
9.75235e-06
-5.58107e-13
9.75235e-06
-7.68129e-13
9.75235e-06
-6.14077e-13
9.75235e-06
-4.94594e-13
9.75235e-06
-5.96737e-13
9.75235e-06
-7.69678e-13
9.75235e-06
-6.77402e-13
9.75235e-06
-1.83466e-13
9.75235e-06
5.15747e-13
9.75235e-06
9.95161e-13
9.75235e-06
9.48447e-13
9.75235e-06
3.64777e-13
9.75235e-06
-4.28183e-13
9.75235e-06
-1.04826e-12
9.75235e-06
-1.33044e-12
9.75235e-06
-1.33246e-12
9.75235e-06
-1.08008e-12
9.75235e-06
-5.16296e-13
9.75235e-06
3.54571e-13
9.75235e-06
1.34947e-12
9.75235e-06
2.14897e-12
9.75235e-06
2.42373e-12
9.75235e-06
2.06312e-12
9.75235e-06
1.24393e-12
9.75235e-06
3.40455e-13
9.75235e-06
-3.12755e-13
9.75235e-06
-6.09209e-13
9.75235e-06
-6.38714e-13
9.75235e-06
-5.11405e-13
9.75235e-06
-2.60965e-13
9.75235e-06
7.10653e-14
9.75235e-06
3.61846e-13
9.75235e-06
4.39901e-13
9.75235e-06
2.04814e-13
9.75235e-06
-2.39783e-13
9.75235e-06
-6.25672e-13
9.75235e-06
-7.2384e-13
9.75235e-06
-5.04237e-13
9.75235e-06
-2.05133e-13
9.75235e-06
-7.02156e-14
9.75235e-06
-1.70661e-13
9.75234e-06
-3.62201e-13
9.75234e-06
-4.43181e-13
9.75234e-06
-3.52193e-13
9.75234e-06
-2.02375e-13
9.75234e-06
-1.5506e-13
9.75234e-06
-2.71055e-13
9.75234e-06
-4.59356e-13
9.75234e-06
-5.39269e-13
9.75234e-06
-4.14015e-13
9.75234e-06
-1.03799e-13
9.75234e-06
2.69567e-13
9.75234e-06
6.13638e-13
9.75234e-06
9.0058e-13
9.75234e-06
1.1277e-12
9.75234e-06
1.27722e-12
9.75234e-06
1.29752e-12
9.75234e-06
1.15684e-12
9.75234e-06
8.9158e-13
9.75234e-06
5.8188e-13
9.75234e-06
2.33314e-13
9.75234e-06
-1.69474e-13
9.75234e-06
-6.27321e-13
9.75234e-06
-1.05544e-12
9.75234e-06
-1.22451e-12
9.75234e-06
-8.94033e-13
9.75234e-06
-3.83185e-14
9.75234e-06
9.39552e-13
9.75234e-06
1.49787e-12
9.75233e-06
1.60315e-12
9.75233e-06
1.82739e-12
9.75233e-06
2.43591e-12
2.7162e-12
1.42343e-05
1.07262e-12
1.42343e-05
2.38121e-12
1.42343e-05
3.46287e-12
1.42343e-05
3.73296e-12
1.42343e-05
3.02857e-12
1.42343e-05
2.017e-12
1.42343e-05
1.5837e-12
1.42343e-05
1.6113e-12
1.42343e-05
1.56946e-12
1.42343e-05
1.24479e-12
1.42343e-05
9.27825e-13
1.42343e-05
8.36485e-13
1.42343e-05
8.88637e-13
1.42343e-05
7.89179e-13
1.42343e-05
2.72267e-13
1.42343e-05
-6.60536e-13
1.42343e-05
-1.67441e-12
1.42343e-05
-2.43053e-12
1.42343e-05
-2.73413e-12
1.42343e-05
-2.49898e-12
1.42343e-05
-1.77167e-12
1.42343e-05
-6.42025e-13
1.42343e-05
6.27731e-13
1.42343e-05
1.67605e-12
1.42343e-05
2.11918e-12
1.42343e-05
1.79574e-12
1.42343e-05
8.90041e-13
1.42343e-05
-1.30938e-13
1.42343e-05
-7.83304e-13
1.42343e-05
-8.73539e-13
1.42343e-05
-6.02443e-13
1.42343e-05
-3.28331e-13
1.42343e-05
-2.54332e-13
1.42343e-05
-3.11124e-13
1.42343e-05
-2.37719e-13
1.42343e-05
9.38037e-14
1.42343e-05
5.35616e-13
1.42343e-05
7.32458e-13
1.42343e-05
4.6473e-13
1.42343e-05
-2.10001e-13
1.42343e-05
-9.56864e-13
1.42343e-05
-1.44036e-12
1.42343e-05
-1.54648e-12
1.42343e-05
-1.3729e-12
1.42343e-05
-1.03774e-12
1.42343e-05
-5.39962e-13
1.42343e-05
1.47265e-13
1.42343e-05
9.05455e-13
1.42343e-05
1.49757e-12
1.42343e-05
1.65882e-12
1.42343e-05
1.29252e-12
1.42343e-05
5.90848e-13
1.42343e-05
-9.76368e-14
1.42343e-05
-5.13115e-13
1.42343e-05
-6.2614e-13
1.42343e-05
-5.59495e-13
1.42343e-05
-4.3674e-13
1.42343e-05
-2.41831e-13
1.42343e-05
8.28232e-15
1.42343e-05
2.42517e-13
1.42343e-05
3.09891e-13
1.42343e-05
8.77574e-14
1.42343e-05
-3.2992e-13
1.42343e-05
-6.88579e-13
1.42343e-05
-7.59252e-13
1.42343e-05
-5.36988e-13
1.42343e-05
-2.33975e-13
1.42343e-05
-8.89424e-14
1.42343e-05
-1.74322e-13
1.42343e-05
-3.68928e-13
1.42343e-05
-4.91216e-13
1.42343e-05
-4.70201e-13
1.42343e-05
-3.98713e-13
1.42343e-05
-4.13277e-13
1.42343e-05
-5.56032e-13
1.42343e-05
-7.37455e-13
1.42343e-05
-8.10819e-13
1.42343e-05
-6.95534e-13
1.42343e-05
-4.31565e-13
1.42343e-05
-9.23666e-14
1.42343e-05
2.33595e-13
1.42343e-05
5.14485e-13
1.42343e-05
7.48115e-13
1.42343e-05
9.05346e-13
1.42343e-05
9.33564e-13
1.42343e-05
8.14148e-13
1.42343e-05
5.99661e-13
1.42343e-05
3.8155e-13
1.42343e-05
1.9235e-13
1.42343e-05
5.28146e-15
1.42343e-05
-2.135e-13
1.42343e-05
-4.04797e-13
1.42343e-05
-3.64074e-13
1.42343e-05
1.53328e-13
1.42343e-05
1.08635e-12
1.42343e-05
2.03615e-12
1.42343e-05
2.66494e-12
1.42343e-05
3.08448e-12
1.42343e-05
3.4311e-12
3.36276e-12
1.72157e-05
2.05061e-12
1.72157e-05
3.28032e-12
1.72157e-05
3.75375e-12
1.72157e-05
3.44128e-12
1.72157e-05
2.52425e-12
1.72157e-05
1.3869e-12
1.72157e-05
9.1076e-13
1.72157e-05
1.33653e-12
1.72157e-05
2.11012e-12
1.72157e-05
2.49966e-12
1.72157e-05
2.32233e-12
1.72157e-05
1.81434e-12
1.72157e-05
1.30193e-12
1.72157e-05
8.95084e-13
1.72157e-05
5.33671e-13
1.72157e-05
1.31836e-13
1.72157e-05
-2.8284e-13
1.72157e-05
-6.15024e-13
1.72157e-05
-8.48197e-13
1.72157e-05
-9.82314e-13
1.72157e-05
-1.02427e-12
1.72157e-05
-9.1848e-13
1.72157e-05
-5.60657e-13
1.72157e-05
3.75441e-14
1.72157e-05
6.85528e-13
1.72157e-05
1.04367e-12
1.72157e-05
9.01166e-13
1.72157e-05
3.24601e-13
1.72157e-05
-3.34137e-13
1.72157e-05
-6.69084e-13
1.72157e-05
-5.37429e-13
1.72157e-05
-1.32409e-13
1.72157e-05
1.95974e-13
1.72157e-05
2.3129e-13
1.72157e-05
5.38614e-14
1.72157e-05
-8.00855e-14
1.72156e-05
-5.44989e-15
1.72156e-05
1.66445e-13
1.72156e-05
1.76153e-13
1.72156e-05
-1.55996e-13
1.72156e-05
-7.27731e-13
1.72156e-05
-1.24683e-12
1.72156e-05
-1.4796e-12
1.72156e-05
-1.42842e-12
1.72156e-05
-1.26854e-12
1.72156e-05
-1.12376e-12
1.72156e-05
-9.66638e-13
1.72156e-05
-6.8834e-13
1.72156e-05
-2.58316e-13
1.72156e-05
1.80434e-13
1.72156e-05
3.85521e-13
1.72156e-05
2.71642e-13
1.72156e-05
-3.21618e-14
1.72156e-05
-2.89497e-13
1.72156e-05
-3.63708e-13
1.72156e-05
-3.08276e-13
1.72156e-05
-2.61428e-13
1.72156e-05
-2.77517e-13
1.72156e-05
-2.73252e-13
1.72156e-05
-1.5064e-13
1.72156e-05
4.7996e-14
1.72156e-05
1.51167e-13
1.72156e-05
1.2667e-14
1.72156e-05
-3.15515e-13
1.72156e-05
-6.04958e-13
1.72156e-05
-6.44313e-13
1.72156e-05
-4.28874e-13
1.72156e-05
-1.5999e-13
1.72156e-05
-6.17661e-14
1.72156e-05
-1.96087e-13
1.72156e-05
-4.38357e-13
1.72156e-05
-6.16638e-13
1.72156e-05
-6.52541e-13
1.72156e-05
-6.40427e-13
1.72156e-05
-7.08017e-13
1.72156e-05
-8.93218e-13
1.72156e-05
-1.09975e-12
1.72156e-05
-1.19843e-12
1.72156e-05
-1.13048e-12
1.72156e-05
-9.31209e-13
1.72156e-05
-6.84111e-13
1.72156e-05
-4.46588e-13
1.72156e-05
-2.14576e-13
1.72156e-05
1.89633e-14
1.72156e-05
2.23948e-13
1.72156e-05
3.48093e-13
1.72156e-05
3.81563e-13
1.72156e-05
3.92874e-13
1.72156e-05
4.72007e-13
1.72156e-05
6.50841e-13
1.72156e-05
8.54729e-13
1.72156e-05
9.34275e-13
1.72156e-05
9.08837e-13
1.72156e-05
9.66368e-13
1.72156e-05
1.35999e-12
1.72156e-05
2.10591e-12
1.72156e-05
2.9544e-12
1.72156e-05
3.64875e-12
1.72156e-05
3.86176e-12
3.44043e-12
1.87043e-05
2.72229e-12
1.87043e-05
3.33507e-12
1.87042e-05
3.25131e-12
1.87042e-05
2.90392e-12
1.87042e-05
2.53435e-12
1.87042e-05
1.77039e-12
1.87042e-05
1.00088e-12
1.87042e-05
8.58197e-13
1.87042e-05
1.35785e-12
1.87042e-05
1.98074e-12
1.87042e-05
2.1997e-12
1.87042e-05
1.98626e-12
1.87042e-05
1.54991e-12
1.87042e-05
1.1608e-12
1.87042e-05
9.1339e-13
1.87042e-05
7.79707e-13
1.87042e-05
7.01595e-13
1.87042e-05
6.45197e-13
1.87042e-05
5.53276e-13
1.87042e-05
3.47239e-13
1.87042e-05
-3.05515e-14
1.87042e-05
-5.29107e-13
1.87042e-05
-9.46256e-13
1.87042e-05
-1.04104e-12
1.87042e-05
-7.12238e-13
1.87042e-05
-1.27206e-13
1.87042e-05
3.77705e-13
1.87042e-05
5.14145e-13
1.87042e-05
2.61031e-13
1.87042e-05
-1.06658e-13
1.87042e-05
-2.68571e-13
1.87042e-05
-1.05909e-13
1.87042e-05
2.07801e-13
1.87042e-05
3.73687e-13
1.87042e-05
2.37511e-13
1.87042e-05
-8.49422e-14
1.87042e-05
-3.08624e-13
1.87042e-05
-2.78665e-13
1.87042e-05
-8.46025e-14
1.87042e-05
1.65441e-14
1.87042e-05
-1.54999e-13
1.87042e-05
-5.22388e-13
1.87042e-05
-8.59249e-13
1.87042e-05
-1.00746e-12
1.87042e-05
-1.03492e-12
1.87042e-05
-1.08496e-12
1.87042e-05
-1.22973e-12
1.87042e-05
-1.36975e-12
1.87042e-05
-1.29942e-12
1.87042e-05
-9.59109e-13
1.87042e-05
-4.84277e-13
1.87042e-05
-1.13221e-13
1.87042e-05
2.52369e-14
1.87042e-05
-7.31308e-15
1.87042e-05
-4.77574e-14
1.87042e-05
-2.25549e-14
1.87042e-05
-2.08188e-15
1.87042e-05
-8.47243e-14
1.87042e-05
-2.48968e-13
1.87042e-05
-3.43524e-13
1.87042e-05
-2.47544e-13
1.87042e-05
-6.07111e-15
1.87042e-05
1.68784e-13
1.87042e-05
1.10854e-13
1.87042e-05
-1.50556e-13
1.87042e-05
-4.05974e-13
1.87042e-05
-4.55831e-13
1.87042e-05
-2.89107e-13
1.87042e-05
-8.47204e-14
1.87042e-05
-3.35183e-14
1.87042e-05
-1.8149e-13
1.87042e-05
-4.11594e-13
1.87042e-05
-5.51019e-13
1.87042e-05
-5.61397e-13
1.87042e-05
-5.31768e-13
1.87042e-05
-5.86776e-13
1.87042e-05
-7.59811e-13
1.87042e-05
-9.75641e-13
1.87042e-05
-1.12415e-12
1.87042e-05
-1.15129e-12
1.87042e-05
-1.08326e-12
1.87042e-05
-9.69972e-13
1.87042e-05
-8.21446e-13
1.87042e-05
-6.15916e-13
1.87042e-05
-3.48707e-13
1.87042e-05
-7.38422e-14
1.87042e-05
1.34137e-13
1.87042e-05
2.69035e-13
1.87042e-05
4.14623e-13
1.87042e-05
6.99694e-13
1.87042e-05
1.14191e-12
1.87042e-05
1.57758e-12
1.87042e-05
1.80383e-12
1.87042e-05
1.76039e-12
1.87042e-05
1.67405e-12
1.87042e-05
1.88827e-12
1.87042e-05
2.50699e-12
1.87042e-05
3.24413e-12
1.87042e-05
3.43912e-12
2.89296e-12
1.87042e-05
3.31468e-12
1.87042e-05
3.24189e-12
1.87042e-05
2.68343e-12
1.87042e-05
2.51193e-12
1.87042e-05
2.97811e-12
1.87042e-05
2.94079e-12
1.87042e-05
1.95073e-12
1.87042e-05
6.60981e-13
1.87042e-05
-1.49695e-13
1.87042e-05
-2.98138e-13
1.87042e-05
-8.72617e-14
1.87042e-05
2.08737e-13
1.87042e-05
4.68885e-13
1.87042e-05
7.35614e-13
1.87042e-05
1.01323e-12
1.87042e-05
1.24667e-12
1.87042e-05
1.3654e-12
1.87042e-05
1.36086e-12
1.87042e-05
1.2274e-12
1.87042e-05
9.66461e-13
1.87042e-05
5.45622e-13
1.87042e-05
-5.51439e-14
1.87042e-05
-7.26157e-13
1.87042e-05
-1.23708e-12
1.87042e-05
-1.34024e-12
1.87042e-05
-9.55444e-13
1.87042e-05
-2.62286e-13
1.87042e-05
3.79761e-13
1.87042e-05
6.64506e-13
1.87042e-05
5.46417e-13
1.87042e-05
2.32161e-13
1.87042e-05
-2.25802e-15
1.87042e-05
-3.82673e-14
1.87042e-05
1.99767e-14
1.87042e-05
-2.04779e-14
1.87042e-05
-2.2326e-13
1.87042e-05
-4.11036e-13
1.87042e-05
-3.51768e-13
1.87042e-05
2.84551e-14
1.87042e-05
5.63372e-13
1.87042e-05
9.24612e-13
1.87042e-05
9.21316e-13
1.87042e-05
6.09014e-13
1.87042e-05
2.06033e-13
1.87042e-05
-1.38025e-13
1.87042e-05
-3.98449e-13
1.87042e-05
-6.59694e-13
1.87042e-05
-9.41829e-13
1.87042e-05
-1.11136e-12
1.87042e-05
-1.02346e-12
1.87042e-05
-6.53177e-13
1.87042e-05
-1.68852e-13
1.87042e-05
1.82864e-13
1.87042e-05
2.93935e-13
1.87042e-05
2.41808e-13
1.87042e-05
1.71652e-13
1.87042e-05
1.52449e-13
1.87042e-05
1.16042e-13
1.87042e-05
-1.09185e-14
1.87042e-05
-1.79603e-13
1.87042e-05
-2.4834e-13
1.87042e-05
-1.05852e-13
1.87042e-05
1.63781e-13
1.87042e-05
3.52336e-13
1.87042e-05
3.01173e-13
1.87042e-05
4.7135e-14
1.87042e-05
-2.05629e-13
1.87042e-05
-2.64187e-13
1.87042e-05
-1.20252e-13
1.87042e-05
7.99365e-14
1.87042e-05
1.79893e-13
1.87042e-05
1.4478e-13
1.87042e-05
7.87556e-14
1.87042e-05
1.11077e-13
1.87042e-05
2.54493e-13
1.87042e-05
4.01278e-13
1.87042e-05
4.12711e-13
1.87042e-05
2.41074e-13
1.87042e-05
-4.46972e-14
1.87042e-05
-3.43597e-13
1.87042e-05
-5.87755e-13
1.87042e-05
-7.498e-13
1.87042e-05
-8.23e-13
1.87042e-05
-7.83435e-13
1.87042e-05
-6.10315e-13
1.87042e-05
-3.45055e-13
1.87042e-05
-1.02268e-13
1.87042e-05
1.56165e-14
1.87042e-05
2.10518e-14
1.87042e-05
7.77196e-14
1.87042e-05
3.66745e-13
1.87042e-05
9.07169e-13
1.87042e-05
1.47827e-12
1.87042e-05
1.78485e-12
1.87042e-05
1.766e-12
1.87042e-05
1.69593e-12
1.87042e-05
1.88956e-12
1.87042e-05
2.2958e-12
1.87042e-05
2.34843e-12
1.90097e-12
1.72157e-05
3.67939e-12
1.72157e-05
3.25706e-12
1.72157e-05
2.29939e-12
1.72157e-05
2.035e-12
1.72157e-05
2.92361e-12
1.72157e-05
3.59189e-12
1.72157e-05
2.83199e-12
1.72157e-05
8.26933e-13
1.72157e-05
-1.34358e-12
1.72157e-05
-2.75883e-12
1.72157e-05
-3.13975e-12
1.72157e-05
-2.66679e-12
1.72157e-05
-1.67542e-12
1.72157e-05
-4.69686e-13
1.72157e-05
6.94613e-13
1.72157e-05
1.49886e-12
1.72157e-05
1.91043e-12
1.72157e-05
1.89517e-12
1.72157e-05
1.57167e-12
1.72157e-05
1.10658e-12
1.72157e-05
6.03366e-13
1.72157e-05
1.01279e-13
1.72157e-05
-4.36299e-13
1.72157e-05
-9.37689e-13
1.72157e-05
-1.23858e-12
1.72157e-05
-1.155e-12
1.72157e-05
-6.4482e-13
1.72157e-05
1.01418e-13
1.72157e-05
7.37449e-13
1.72157e-05
9.806e-13
1.72157e-05
7.66375e-13
1.72157e-05
2.7959e-13
1.72157e-05
-1.95292e-13
1.72157e-05
-4.68919e-13
1.72157e-05
-5.52561e-13
1.72157e-05
-5.36576e-13
1.72157e-05
-4.34022e-13
1.72157e-05
-1.46474e-13
1.72157e-05
4.32499e-13
1.72157e-05
1.25526e-12
1.72157e-05
2.017e-12
1.72157e-05
2.40771e-12
1.72157e-05
2.2684e-12
1.72157e-05
1.71533e-12
1.72157e-05
1.02432e-12
1.72157e-05
4.443e-13
1.72157e-05
5.78931e-14
1.72156e-05
-1.8751e-13
1.72156e-05
-3.45149e-13
1.72156e-05
-3.79901e-13
1.72156e-05
-2.32899e-13
1.72156e-05
6.99892e-14
1.72156e-05
3.68166e-13
1.72156e-05
4.9091e-13
1.72156e-05
4.05289e-13
1.72156e-05
2.3973e-13
1.72156e-05
1.47779e-13
1.72156e-05
1.62199e-13
1.72156e-05
1.89498e-13
1.72156e-05
1.38966e-13
1.72156e-05
3.55254e-14
1.72156e-05
9.24068e-15
1.72156e-05
1.40651e-13
1.72156e-05
3.58863e-13
1.72156e-05
4.92254e-13
1.72156e-05
4.12133e-13
1.72156e-05
1.68147e-13
1.72156e-05
-4.14778e-14
1.72156e-05
-5.59904e-14
1.72156e-05
1.40242e-13
1.72156e-05
4.36383e-13
1.72156e-05
6.84946e-13
1.72156e-05
8.58631e-13
1.72156e-05
1.02171e-12
1.72156e-05
1.24448e-12
1.72156e-05
1.49678e-12
1.72156e-05
1.66866e-12
1.72156e-05
1.63423e-12
1.72156e-05
1.3543e-12
1.72156e-05
8.89553e-13
1.72156e-05
3.52402e-13
1.72156e-05
-1.4101e-13
1.72156e-05
-4.93862e-13
1.72156e-05
-6.92667e-13
1.72156e-05
-7.00164e-13
1.72156e-05
-5.39849e-13
1.72156e-05
-3.3299e-13
1.72156e-05
-2.52053e-13
1.72156e-05
-3.91011e-13
1.72156e-05
-6.53359e-13
1.72156e-05
-7.5622e-13
1.72156e-05
-4.48623e-13
1.72156e-05
2.59264e-13
1.72156e-05
1.0471e-12
1.72156e-05
1.50093e-12
1.72156e-05
1.56886e-12
1.72156e-05
1.45186e-12
1.72156e-05
1.26961e-12
1.72156e-05
9.50135e-13
7.3032e-13
1.42343e-05
3.34561e-12
1.42343e-05
3.04101e-12
1.42343e-05
2.11069e-12
1.42343e-05
1.53283e-12
1.42343e-05
2.0142e-12
1.42343e-05
2.77926e-12
1.42343e-05
2.55403e-12
1.42343e-05
9.22432e-13
1.42343e-05
-1.39304e-12
1.42343e-05
-3.33377e-12
1.42343e-05
-4.23844e-12
1.42343e-05
-4.0004e-12
1.42343e-05
-2.90068e-12
1.42343e-05
-1.3475e-12
1.42343e-05
2.41622e-13
1.42343e-05
1.42935e-12
1.42343e-05
1.9639e-12
1.42343e-05
1.92793e-12
1.42343e-05
1.45545e-12
1.42343e-05
8.14451e-13
1.42343e-05
2.51896e-13
1.42343e-05
-1.15085e-13
1.42343e-05
-3.04539e-13
1.42343e-05
-4.76908e-13
1.42343e-05
-6.61102e-13
1.42343e-05
-7.44528e-13
1.42343e-05
-5.68188e-13
1.42343e-05
-8.59333e-14
1.42343e-05
5.182e-13
1.42343e-05
9.38547e-13
1.42343e-05
9.42168e-13
1.42343e-05
5.00931e-13
1.42343e-05
-1.57589e-13
1.42343e-05
-6.95609e-13
1.42343e-05
-8.78931e-13
1.42343e-05
-7.22951e-13
1.42343e-05
-3.4886e-13
1.42343e-05
1.46676e-13
1.42343e-05
7.44216e-13
1.42343e-05
1.45409e-12
1.42343e-05
2.15762e-12
1.42343e-05
2.62179e-12
1.42343e-05
2.63567e-12
1.42343e-05
2.17427e-12
1.42343e-05
1.43574e-12
1.42343e-05
7.43261e-13
1.42343e-05
3.0611e-13
1.42343e-05
1.52318e-13
1.42343e-05
1.73854e-13
1.42343e-05
2.10273e-13
1.42343e-05
2.44019e-13
1.42343e-05
3.0347e-13
1.42343e-05
3.87984e-13
1.42343e-05
4.21541e-13
1.42343e-05
3.26844e-13
1.42343e-05
1.45147e-13
1.42343e-05
1.55042e-14
1.42343e-05
4.28036e-14
1.42343e-05
2.00538e-13
1.42343e-05
3.2809e-13
1.42343e-05
3.19463e-13
1.42343e-05
2.11331e-13
1.42343e-05
1.41426e-13
1.42343e-05
2.11013e-13
1.42343e-05
3.68217e-13
1.42343e-05
4.64535e-13
1.42343e-05
3.91435e-13
1.42343e-05
2.12351e-13
1.42343e-05
8.94574e-14
1.42343e-05
1.62462e-13
1.42343e-05
4.48016e-13
1.42343e-05
8.15547e-13
1.42343e-05
1.14057e-12
1.42343e-05
1.37613e-12
1.42343e-05
1.5611e-12
1.42343e-05
1.7385e-12
1.42343e-05
1.88804e-12
1.42343e-05
1.92113e-12
1.42343e-05
1.75365e-12
1.42343e-05
1.37033e-12
1.42343e-05
8.35751e-13
1.42343e-05
2.66517e-13
1.42343e-05
-2.14746e-13
1.42343e-05
-5.19252e-13
1.42343e-05
-6.36114e-13
1.42343e-05
-5.83386e-13
1.42343e-05
-4.32496e-13
1.42343e-05
-3.42517e-13
1.42343e-05
-4.75208e-13
1.42343e-05
-8.42012e-13
1.42343e-05
-1.21658e-12
1.42343e-05
-1.24337e-12
1.42343e-05
-7.19193e-13
1.42343e-05
1.92916e-13
1.42343e-05
1.02687e-12
1.42343e-05
1.31607e-12
1.42343e-05
9.79122e-13
1.42343e-05
2.62826e-13
1.42343e-05
-3.62879e-13
-2.72995e-13
9.75234e-06
1.72935e-12
9.75235e-06
1.685e-12
9.75235e-06
1.49071e-12
9.75235e-06
1.20532e-12
9.75235e-06
1.06346e-12
9.75235e-06
1.23522e-12
9.75235e-06
1.29069e-12
9.75235e-06
6.67831e-13
9.75235e-06
-4.93998e-13
9.75236e-06
-1.60914e-12
9.75236e-06
-2.10831e-12
9.75236e-06
-1.81117e-12
9.75236e-06
-9.32005e-13
9.75236e-06
1.1004e-13
9.75236e-06
1.03653e-12
9.75236e-06
1.59377e-12
9.75236e-06
1.61322e-12
9.75236e-06
1.13455e-12
9.75236e-06
3.64868e-13
9.75236e-06
-3.84134e-13
9.75236e-06
-8.34792e-13
9.75236e-06
-8.66231e-13
9.75236e-06
-5.91646e-13
9.75236e-06
-2.16026e-13
9.75236e-06
2.99057e-14
9.75236e-06
8.90179e-14
9.75236e-06
6.69769e-14
9.75236e-06
1.43399e-13
9.75236e-06
3.66021e-13
9.75235e-06
5.8889e-13
9.75235e-06
5.89817e-13
9.75235e-06
2.69784e-13
9.75235e-06
-2.7746e-13
9.75235e-06
-7.5576e-13
9.75235e-06
-8.90804e-13
9.75235e-06
-5.68265e-13
9.75235e-06
7.33155e-15
9.75235e-06
6.00753e-13
9.75235e-06
1.02973e-12
9.75235e-06
1.23238e-12
9.75235e-06
1.27012e-12
9.75235e-06
1.1646e-12
9.75235e-06
8.88953e-13
9.75235e-06
4.39013e-13
9.75235e-06
-6.81915e-14
9.75235e-06
-4.2347e-13
9.75235e-06
-4.79034e-13
9.75235e-06
-2.35833e-13
9.75235e-06
1.47821e-13
9.75235e-06
4.39941e-13
9.75235e-06
5.17889e-13
9.75235e-06
3.97798e-13
9.75235e-06
2.15115e-13
9.75235e-06
6.44164e-14
9.75235e-06
-5.74999e-14
9.75235e-06
-1.63496e-13
9.75235e-06
-2.12895e-13
9.75235e-06
-1.37413e-13
9.75235e-06
7.42379e-14
9.75235e-06
3.035e-13
9.75235e-06
4.02414e-13
9.75235e-06
3.05704e-13
9.75235e-06
1.07612e-13
9.75235e-06
-1.18662e-14
9.75235e-06
2.54705e-14
9.75235e-06
1.68867e-13
9.75235e-06
2.6739e-13
9.75235e-06
2.41068e-13
9.75235e-06
1.38958e-13
9.75235e-06
1.04441e-13
9.75235e-06
2.21934e-13
9.75235e-06
4.55822e-13
9.75235e-06
6.81381e-13
9.75235e-06
7.85201e-13
9.75234e-06
7.47251e-13
9.75234e-06
6.31788e-13
9.75234e-06
5.12667e-13
9.75234e-06
4.09444e-13
9.75234e-06
2.91136e-13
9.75234e-06
1.33495e-13
9.75234e-06
-4.321e-14
9.75234e-06
-2.25137e-13
9.75234e-06
-3.66544e-13
9.75234e-06
-4.10571e-13
9.75234e-06
-3.54422e-13
9.75234e-06
-2.09894e-13
9.75234e-06
-3.2243e-14
9.75234e-06
7.7492e-14
9.75234e-06
-1.90894e-15
9.75234e-06
-3.13722e-13
9.75234e-06
-7.09454e-13
9.75234e-06
-8.62773e-13
9.75234e-06
-4.88384e-13
9.75234e-06
3.22886e-13
9.75234e-06
1.12709e-12
9.75234e-06
1.32163e-12
9.75234e-06
6.1041e-13
9.75234e-06
-6.86864e-13
9.75234e-06
-1.52076e-12
-1.04939e-12
3.75887e-06
3.75887e-06
3.75888e-06
3.75888e-06
3.75888e-06
3.75888e-06
3.75888e-06
3.75888e-06
3.75888e-06
3.75888e-06
3.75888e-06
3.75888e-06
3.75888e-06
3.75888e-06
3.75888e-06
3.75888e-06
3.75888e-06
3.75888e-06
3.75888e-06
3.75888e-06
3.75888e-06
3.75888e-06
3.75888e-06
3.75888e-06
3.75888e-06
3.75888e-06
3.75888e-06
3.75888e-06
3.75888e-06
3.75888e-06
3.75888e-06
3.75888e-06
3.75888e-06
3.75888e-06
3.75888e-06
3.75888e-06
3.75888e-06
3.75888e-06
3.75888e-06
3.75888e-06
3.75888e-06
3.75888e-06
3.75888e-06
3.75888e-06
3.75888e-06
3.75888e-06
3.75888e-06
3.75888e-06
3.75888e-06
3.75888e-06
3.75888e-06
3.75888e-06
3.75888e-06
3.75888e-06
3.75888e-06
3.75888e-06
3.75888e-06
3.75888e-06
3.75888e-06
3.75888e-06
3.75888e-06
3.75888e-06
3.75888e-06
3.75888e-06
3.75888e-06
3.75888e-06
3.75888e-06
3.75888e-06
3.75888e-06
3.75888e-06
3.75888e-06
3.75888e-06
3.75888e-06
3.75888e-06
3.75887e-06
3.75887e-06
3.75887e-06
3.75887e-06
3.75887e-06
3.75887e-06
3.75887e-06
3.75887e-06
3.75887e-06
3.75887e-06
3.75887e-06
3.75887e-06
3.75887e-06
3.75887e-06
3.75887e-06
3.75887e-06
3.75887e-06
3.75888e-06
3.75888e-06
3.75887e-06
3.75887e-06
3.75887e-06
3.75887e-06
3.75887e-06
3.75887e-06
)
;

boundaryField
{
    inlet
    {
        type            calculated;
        value           nonuniform List<scalar> 10(-3.75887e-06 -9.75235e-06 -1.42343e-05 -1.72157e-05 -1.87043e-05 -1.87043e-05 -1.72157e-05 -1.42343e-05 -9.75234e-06 -3.75886e-06);
    }
    outlet
    {
        type            calculated;
        value           nonuniform List<scalar> 10(3.75886e-06 9.75233e-06 1.42343e-05 1.72156e-05 1.87042e-05 1.87042e-05 1.72156e-05 1.42343e-05 9.75234e-06 3.75887e-06);
    }
    walls
    {
        type            calculated;
        value           uniform 0;
    }
    frontAndBack
    {
        type            empty;
    }
}


// ************************************************************************* //
