/*--------------------------------*- C++ -*----------------------------------*\
| =========                 |                                                 |
| \\      /  F ield         | OpenFOAM: The Open Source CFD Toolbox           |
|  \\    /   O peration     | Version:  2406                                  |
|   \\  /    A nd           | Website:  www.openfoam.com                      |
|    \\/     M anipulation  |                                                 |
\*---------------------------------------------------------------------------*/
FoamFile
{
    version     2.0;
    format      ascii;
    arch        "LSB;label=32;scalar=64";
    class       volVectorField;
    location    "0.4";
    object      U;
}
// * * * * * * * * * * * * * * * * * * * * * * * * * * * * * * * * * * * * * //

dimensions      [0 1 -1 0 0 0 0];

internalField   nonuniform List<vector> 
1000
(
(0.0375887 -9.40954e-09 0)
(0.0375888 -1.50917e-08 0)
(0.0375888 -1.03341e-08 0)
(0.0375888 3.03067e-09 0)
(0.0375888 1.45201e-08 0)
(0.0375888 1.91754e-08 0)
(0.0375888 1.46138e-08 0)
(0.0375888 2.92282e-09 0)
(0.0375888 -8.95443e-09 0)
(0.0375888 -1.37354e-08 0)
(0.0375888 -9.33113e-09 0)
(0.0375888 2.73162e-10 0)
(0.0375888 8.68279e-09 0)
(0.0375888 1.15942e-08 0)
(0.0375888 8.67154e-09 0)
(0.0375888 2.16463e-09 0)
(0.0375888 -5.05983e-09 0)
(0.0375888 -1.0468e-08 0)
(0.0375888 -1.21598e-08 0)
(0.0375888 -9.62096e-09 0)
(0.0375888 -4.11867e-09 0)
(0.0375888 1.89222e-09 0)
(0.0375888 5.74906e-09 0)
(0.0375888 6.15247e-09 0)
(0.0375888 3.63291e-09 0)
(0.0375888 3.98631e-10 0)
(0.0375888 -1.24673e-09 0)
(0.0375888 -6.95581e-10 0)
(0.0375888 7.28105e-10 0)
(0.0375888 9.64375e-10 0)
(0.0375888 -7.7294e-10 0)
(0.0375888 -3.27244e-09 0)
(0.0375888 -4.35753e-09 0)
(0.0375888 -2.78898e-09 0)
(0.0375888 6.3242e-10 0)
(0.0375888 3.78747e-09 0)
(0.0375888 4.95019e-09 0)
(0.0375888 3.84289e-09 0)
(0.0375888 1.60981e-09 0)
(0.0375888 -4.29808e-10 0)
(0.0375888 -1.77499e-09 0)
(0.0375888 -2.87011e-09 0)
(0.0375888 -3.86622e-09 0)
(0.0375888 -4.19493e-09 0)
(0.0375888 -3.02136e-09 0)
(0.0375888 -3.23674e-10 0)
(0.0375888 2.80023e-09 0)
(0.0375888 4.93023e-09 0)
(0.0375888 5.21118e-09 0)
(0.0375888 3.73425e-09 0)
(0.0375888 1.64472e-09 0)
(0.0375888 1.45598e-10 0)
(0.0375888 -4.77317e-10 0)
(0.0375888 -5.9871e-10 0)
(0.0375888 -6.40579e-10 0)
(0.0375888 -4.41186e-10 0)
(0.0375888 2.72515e-10 0)
(0.0375888 1.286e-09 0)
(0.0375888 1.88702e-09 0)
(0.0375888 1.40008e-09 0)
(0.0375888 -5.47687e-11 0)
(0.0375888 -1.42597e-09 0)
(0.0375888 -1.64751e-09 0)
(0.0375888 -6.56768e-10 0)
(0.0375888 5.31594e-10 0)
(0.0375888 7.57673e-10 0)
(0.0375888 -1.78635e-10 0)
(0.0375888 -1.3253e-09 0)
(0.0375888 -1.67783e-09 0)
(0.0375888 -9.11062e-10 0)
(0.0375888 2.99899e-10 0)
(0.0375887 8.86592e-10 0)
(0.0375887 3.84333e-10 0)
(0.0375887 -7.67892e-10 0)
(0.0375887 -1.6867e-09 0)
(0.0375887 -1.81567e-09 0)
(0.0375887 -1.27865e-09 0)
(0.0375887 -5.7489e-10 0)
(0.0375887 -1.12889e-10 0)
(0.0375887 1.37478e-10 0)
(0.0375887 4.42611e-10 0)
(0.0375887 9.81302e-10 0)
(0.0375887 1.58027e-09 0)
(0.0375887 1.99004e-09 0)
(0.0375887 2.15824e-09 0)
(0.0375887 2.20754e-09 0)
(0.0375887 2.1313e-09 0)
(0.0375887 1.67915e-09 0)
(0.0375887 6.00529e-10 0)
(0.0375887 -1.04128e-09 0)
(0.0375887 -2.40617e-09 0)
(0.0375887 -2.28598e-09 0)
(0.0375887 -1.0566e-10 0)
(0.0375887 2.93607e-09 0)
(0.0375887 4.66108e-09 0)
(0.0375887 4.24779e-09 0)
(0.0375887 3.23303e-09 0)
(0.0375887 3.6536e-09 0)
(0.0375887 6.42125e-09 0)
(0.0375887 7.91221e-09 0)
(0.0975235 -1.05766e-08 0)
(0.0975235 -1.27917e-08 0)
(0.0975236 -1.87607e-09 0)
(0.0975235 1.7052e-08 0)
(0.0975235 2.99166e-08 0)
(0.0975235 3.34404e-08 0)
(0.0975236 2.65439e-08 0)
(0.0975236 1.02361e-08 0)
(0.0975236 -7.86251e-09 0)
(0.0975235 -1.70069e-08 0)
(0.0975235 -1.25727e-08 0)
(0.0975235 9.73386e-10 0)
(0.0975235 1.37098e-08 0)
(0.0975235 1.71955e-08 0)
(0.0975235 9.90951e-09 0)
(0.0975236 -4.07663e-09 0)
(0.0975236 -1.89309e-08 0)
(0.0975236 -2.92581e-08 0)
(0.0975235 -3.15762e-08 0)
(0.0975235 -2.50227e-08 0)
(0.0975235 -1.16099e-08 0)
(0.0975235 3.89045e-09 0)
(0.0975235 1.56586e-08 0)
(0.0975235 1.97669e-08 0)
(0.0975235 1.58552e-08 0)
(0.0975235 7.4248e-09 0)
(0.0975235 -2.18926e-10 0)
(0.0975235 -3.59483e-09 0)
(0.0975235 -3.13024e-09 0)
(0.0975235 -2.12495e-09 0)
(0.0975235 -3.3525e-09 0)
(0.0975235 -6.50986e-09 0)
(0.0975235 -8.58779e-09 0)
(0.0975235 -6.49967e-09 0)
(0.0975235 -3.2831e-10 0)
(0.0975235 6.64592e-09 0)
(0.0975235 1.04269e-08 0)
(0.0975235 9.02005e-09 0)
(0.0975235 3.66236e-09 0)
(0.0975235 -2.51658e-09 0)
(0.0975235 -7.09878e-09 0)
(0.0975235 -9.72184e-09 0)
(0.0975235 -1.07686e-08 0)
(0.0975235 -9.81668e-09 0)
(0.0975235 -5.74641e-09 0)
(0.0975235 1.52371e-09 0)
(0.0975235 9.95621e-09 0)
(0.0975235 1.63816e-08 0)
(0.0975235 1.81867e-08 0)
(0.0975235 1.48148e-08 0)
(0.0975235 8.35686e-09 0)
(0.0975235 2.03636e-09 0)
(0.0975235 -2.10293e-09 0)
(0.0975235 -3.86534e-09 0)
(0.0975235 -4.06098e-09 0)
(0.0975235 -3.14358e-09 0)
(0.0975235 -1.0639e-09 0)
(0.0975235 1.72376e-09 0)
(0.0975235 3.86169e-09 0)
(0.0975235 3.76659e-09 0)
(0.0975235 1.03354e-09 0)
(0.0975235 -2.73524e-09 0)
(0.0975235 -5.00975e-09 0)
(0.0975235 -4.47306e-09 0)
(0.0975235 -2.16171e-09 0)
(0.0975235 -3.51582e-10 0)
(0.0975235 -5.83202e-10 0)
(0.0975235 -2.28928e-09 0)
(0.0975235 -3.65675e-09 0)
(0.0975234 -3.30768e-09 0)
(0.0975234 -1.59347e-09 0)
(0.0975234 -1.98392e-10 0)
(0.0975234 -4.62976e-10 0)
(0.0975234 -2.25146e-09 0)
(0.0975234 -4.14348e-09 0)
(0.0975234 -4.6742e-09 0)
(0.0975234 -3.42907e-09 0)
(0.0975234 -1.08646e-09 0)
(0.0975234 1.32921e-09 0)
(0.0975234 3.36282e-09 0)
(0.0975234 5.14808e-09 0)
(0.0975234 6.88645e-09 0)
(0.0975234 8.30917e-09 0)
(0.0975234 8.88265e-09 0)
(0.0975234 8.37503e-09 0)
(0.0975234 7.07493e-09 0)
(0.0975234 5.32112e-09 0)
(0.0975234 2.97093e-09 0)
(0.0975234 -2.98654e-10 0)
(0.0975234 -4.38417e-09 0)
(0.0975234 -8.05914e-09 0)
(0.0975234 -8.94171e-09 0)
(0.0975234 -5.02939e-09 0)
(0.0975234 2.50004e-09 0)
(0.0975234 9.30448e-09 0)
(0.0975234 1.18376e-08 0)
(0.0975234 1.14268e-08 0)
(0.0975233 1.29163e-08 0)
(0.0975233 1.88531e-08 0)
(0.0975233 2.20918e-08 0)
(0.142343 2.60492e-09 0)
(0.142343 1.16618e-08 0)
(0.142343 2.26108e-08 0)
(0.142343 2.90274e-08 0)
(0.142343 2.65276e-08 0)
(0.142343 2.12641e-08 0)
(0.142343 1.78127e-08 0)
(0.142343 1.4289e-08 0)
(0.142343 8.584e-09 0)
(0.142343 3.0546e-09 0)
(0.142343 1.31888e-09 0)
(0.142343 4.22487e-09 0)
(0.142343 8.32233e-09 0)
(0.142343 8.31451e-09 0)
(0.142343 1.75836e-09 0)
(0.142343 -9.47631e-09 0)
(0.142343 -2.11801e-08 0)
(0.142343 -2.92182e-08 0)
(0.142343 -3.11264e-08 0)
(0.142343 -2.62169e-08 0)
(0.142343 -1.52473e-08 0)
(0.142343 -8.34296e-10 0)
(0.142343 1.28017e-08 0)
(0.142343 2.13324e-08 0)
(0.142343 2.20984e-08 0)
(0.142343 1.54165e-08 0)
(0.142343 5.06221e-09 0)
(0.142343 -3.80703e-09 0)
(0.142343 -7.86391e-09 0)
(0.142343 -7.41037e-09 0)
(0.142343 -5.38763e-09 0)
(0.142343 -4.54091e-09 0)
(0.142343 -5.16984e-09 0)
(0.142343 -5.07157e-09 0)
(0.142343 -2.21392e-09 0)
(0.142343 2.99743e-09 0)
(0.142343 7.6089e-09 0)
(0.142343 8.34595e-09 0)
(0.142343 4.08634e-09 0)
(0.142343 -3.11656e-09 0)
(0.142343 -9.75488e-09 0)
(0.142343 -1.34389e-08 0)
(0.142343 -1.38847e-08 0)
(0.142343 -1.17788e-08 0)
(0.142343 -7.44856e-09 0)
(0.142343 -8.08403e-10 0)
(0.142343 7.41137e-09 0)
(0.142343 1.51047e-08 0)
(0.142343 1.94106e-08 0)
(0.142343 1.83215e-08 0)
(0.142343 1.22887e-08 0)
(0.142343 4.19699e-09 0)
(0.142343 -2.53738e-09 0)
(0.142343 -6.10042e-09 0)
(0.142343 -6.75544e-09 0)
(0.142343 -5.72254e-09 0)
(0.142343 -3.76161e-09 0)
(0.142343 -1.12871e-09 0)
(0.142343 1.62354e-09 0)
(0.142343 3.23687e-09 0)
(0.142343 2.36177e-09 0)
(0.142343 -1.04132e-09 0)
(0.142343 -5.12832e-09 0)
(0.142343 -7.37425e-09 0)
(0.142343 -6.62364e-09 0)
(0.142343 -3.93101e-09 0)
(0.142343 -1.66605e-09 0)
(0.142343 -1.44645e-09 0)
(0.142343 -2.87299e-09 0)
(0.142343 -4.27485e-09 0)
(0.142343 -4.40029e-09 0)
(0.142343 -3.48984e-09 0)
(0.142343 -2.83075e-09 0)
(0.142343 -3.43542e-09 0)
(0.142343 -5.03473e-09 0)
(0.142343 -6.29497e-09 0)
(0.142343 -5.97107e-09 0)
(0.142343 -3.85708e-09 0)
(0.142343 -6.78087e-10 0)
(0.142343 2.62919e-09 0)
(0.142343 5.54129e-09 0)
(0.142343 7.95515e-09 0)
(0.142343 9.77006e-09 0)
(0.142343 1.05767e-08 0)
(0.142343 9.95973e-09 0)
(0.142343 8.01269e-09 0)
(0.142343 5.36076e-09 0)
(0.142343 2.54831e-09 0)
(0.142343 -3.38324e-10 0)
(0.142343 -3.45552e-09 0)
(0.142343 -6.67197e-09 0)
(0.142343 -8.58173e-09 0)
(0.142343 -6.60866e-09 0)
(0.142343 5.22073e-10 0)
(0.142343 1.04636e-08 0)
(0.142343 1.85144e-08 0)
(0.142343 2.27732e-08 0)
(0.142343 2.64548e-08 0)
(0.142343 3.15736e-08 0)
(0.142343 3.26074e-08 0)
(0.172157 1.40009e-08 0)
(0.172157 2.64151e-08 0)
(0.172157 3.46085e-08 0)
(0.172157 3.4196e-08 0)
(0.172157 2.57165e-08 0)
(0.172157 1.54155e-08 0)
(0.172157 1.14474e-08 0)
(0.172157 1.43921e-08 0)
(0.172157 1.8337e-08 0)
(0.172157 1.88493e-08 0)
(0.172157 1.62309e-08 0)
(0.172157 1.30108e-08 0)
(0.172157 1.04692e-08 0)
(0.172157 7.92176e-09 0)
(0.172157 3.65138e-09 0)
(0.172157 -2.71638e-09 0)
(0.172157 -9.5694e-09 0)
(0.172157 -1.49649e-08 0)
(0.172157 -1.76545e-08 0)
(0.172157 -1.73042e-08 0)
(0.172157 -1.40135e-08 0)
(0.172157 -7.90459e-09 0)
(0.172157 2.86296e-10 0)
(0.172157 8.61578e-09 0)
(0.172157 1.41808e-08 0)
(0.172157 1.44362e-08 0)
(0.172157 9.0714e-09 0)
(0.172157 8.53855e-10 0)
(0.172157 -5.83683e-09 0)
(0.172157 -7.95252e-09 0)
(0.172157 -5.77759e-09 0)
(0.172157 -2.20783e-09 0)
(0.172157 -1.70285e-10 0)
(0.172157 -3.75122e-10 0)
(0.172157 -1.04e-09 0)
(0.172157 -1.06573e-10 0)
(0.172156 2.48167e-09 0)
(0.172156 4.51206e-09 0)
(0.172156 3.31306e-09 0)
(0.172156 -1.71534e-09 0)
(0.172156 -8.38504e-09 0)
(0.172156 -1.34263e-08 0)
(0.172156 -1.51069e-08 0)
(0.172156 -1.39688e-08 0)
(0.172156 -1.15366e-08 0)
(0.172156 -8.44594e-09 0)
(0.172156 -4.32882e-09 0)
(0.172156 8.96813e-10 0)
(0.172156 6.07463e-09 0)
(0.172156 9.08339e-09 0)
(0.172156 8.3169e-09 0)
(0.172156 4.19403e-09 0)
(0.172156 -8.52858e-10 0)
(0.172156 -4.28163e-09 0)
(0.172156 -5.22801e-09 0)
(0.172156 -4.6241e-09 0)
(0.172156 -3.75129e-09 0)
(0.172156 -2.90234e-09 0)
(0.172156 -1.58602e-09 0)
(0.172156 2.89239e-10 0)
(0.172156 1.70232e-09 0)
(0.172156 1.14847e-09 0)
(0.172156 -1.71232e-09 0)
(0.172156 -5.28584e-09 0)
(0.172156 -7.156e-09 0)
(0.172156 -6.19829e-09 0)
(0.172156 -3.46781e-09 0)
(0.172156 -1.28332e-09 0)
(0.172156 -1.21252e-09 0)
(0.172156 -2.92668e-09 0)
(0.172156 -4.79442e-09 0)
(0.172156 -5.52469e-09 0)
(0.172156 -5.27386e-09 0)
(0.172156 -5.21432e-09 0)
(0.172156 -6.24573e-09 0)
(0.172156 -8.09574e-09 0)
(0.172156 -9.56158e-09 0)
(0.172156 -9.5355e-09 0)
(0.172156 -7.82965e-09 0)
(0.172156 -5.16256e-09 0)
(0.172156 -2.36264e-09 0)
(0.172156 1.8701e-10 0)
(0.172156 2.47136e-09 0)
(0.172156 4.39028e-09 0)
(0.172156 5.5277e-09 0)
(0.172156 5.52553e-09 0)
(0.172156 4.6196e-09 0)
(0.172156 3.62061e-09 0)
(0.172156 3.17328e-09 0)
(0.172156 3.23759e-09 0)
(0.172156 3.18123e-09 0)
(0.172156 2.69824e-09 0)
(0.172156 2.79263e-09 0)
(0.172156 5.82349e-09 0)
(0.172156 1.2936e-08 0)
(0.172156 2.21403e-08 0)
(0.172156 3.0235e-08 0)
(0.172156 3.62729e-08 0)
(0.172156 3.91552e-08 0)
(0.172156 3.65152e-08 0)
(0.187043 2.37171e-08 0)
(0.187043 3.272e-08 0)
(0.187042 3.52415e-08 0)
(0.187042 3.2064e-08 0)
(0.187042 2.55285e-08 0)
(0.187042 1.58564e-08 0)
(0.187042 9.58573e-09 0)
(0.187042 1.12573e-08 0)
(0.187042 1.77306e-08 0)
(0.187042 2.26165e-08 0)
(0.187042 2.28472e-08 0)
(0.187042 1.93058e-08 0)
(0.187042 1.4503e-08 0)
(0.187042 1.04033e-08 0)
(0.187042 7.36615e-09 0)
(0.187042 4.78346e-09 0)
(0.187042 2.42405e-09 0)
(0.187042 4.59748e-10 0)
(0.187042 -1.1925e-09 0)
(0.187042 -3.02958e-09 0)
(0.187042 -5.39134e-09 0)
(0.187042 -7.59259e-09 0)
(0.187042 -8.00549e-09 0)
(0.187042 -5.41074e-09 0)
(0.187042 -3.89445e-10 0)
(0.187042 4.63854e-09 0)
(0.187042 6.6328e-09 0)
(0.187042 4.39305e-09 0)
(0.187042 -2.82734e-10 0)
(0.187042 -3.94739e-09 0)
(0.187042 -4.12375e-09 0)
(0.187042 -1.194e-09 0)
(0.187042 2.14043e-09 0)
(0.187042 3.17127e-09 0)
(0.187042 1.51388e-09 0)
(0.187042 -8.52217e-10 0)
(0.187042 -1.65539e-09 0)
(0.187042 -5.67325e-10 0)
(0.187042 5.49962e-10 0)
(0.187042 -5.59517e-10 0)
(0.187042 -4.3441e-09 0)
(0.187042 -8.87293e-09 0)
(0.187042 -1.17931e-08 0)
(0.187042 -1.2397e-08 0)
(0.187042 -1.17699e-08 0)
(0.187042 -1.13899e-08 0)
(0.187042 -1.13986e-08 0)
(0.187042 -1.06645e-08 0)
(0.187042 -8.16912e-09 0)
(0.187042 -4.22597e-09 0)
(0.187042 -6.29722e-10 0)
(0.187042 8.27421e-10 0)
(0.187042 4.09393e-11 0)
(0.187042 -1.429e-09 0)
(0.187042 -2.03326e-09 0)
(0.187042 -1.653e-09 0)
(0.187042 -1.36751e-09 0)
(0.187042 -1.92659e-09 0)
(0.187042 -2.76702e-09 0)
(0.187042 -2.63312e-09 0)
(0.187042 -1.06065e-09 0)
(0.187042 7.56303e-10 0)
(0.187042 9.98119e-10 0)
(0.187042 -9.93555e-10 0)
(0.187042 -3.86282e-09 0)
(0.187042 -5.41633e-09 0)
(0.187042 -4.5728e-09 0)
(0.187042 -2.30321e-09 0)
(0.187042 -6.99611e-10 0)
(0.187042 -1.1157e-09 0)
(0.187042 -3.11029e-09 0)
(0.187042 -5.12215e-09 0)
(0.187042 -6.03724e-09 0)
(0.187042 -6.0266e-09 0)
(0.187042 -6.20515e-09 0)
(0.187042 -7.42906e-09 0)
(0.187042 -9.43606e-09 0)
(0.187042 -1.1114e-08 0)
(0.187042 -1.15612e-08 0)
(0.187042 -1.07308e-08 0)
(0.187042 -9.17856e-09 0)
(0.187042 -7.38965e-09 0)
(0.187042 -5.44784e-09 0)
(0.187042 -3.1957e-09 0)
(0.187042 -7.71613e-10 0)
(0.187042 1.27831e-09 0)
(0.187042 2.53256e-09 0)
(0.187042 3.31849e-09 0)
(0.187042 4.56945e-09 0)
(0.187042 6.98963e-09 0)
(0.187042 1.03023e-08 0)
(0.187042 1.31822e-08 0)
(0.187042 1.42683e-08 0)
(0.187042 1.42854e-08 0)
(0.187042 1.58838e-08 0)
(0.187042 2.10049e-08 0)
(0.187042 2.8833e-08 0)
(0.187042 3.63656e-08 0)
(0.187042 3.83937e-08 0)
(0.187042 3.33453e-08 0)
(0.187043 3.21135e-08 0)
(0.187042 3.49985e-08 0)
(0.187042 3.20398e-08 0)
(0.187042 2.95252e-08 0)
(0.187042 2.98152e-08 0)
(0.187042 2.52496e-08 0)
(0.187042 1.57906e-08 0)
(0.187042 8.25842e-09 0)
(0.187042 6.71708e-09 0)
(0.187042 9.00824e-09 0)
(0.187042 1.13032e-08 0)
(0.187042 1.16734e-08 0)
(0.187042 1.08203e-08 0)
(0.187042 1.00196e-08 0)
(0.187042 9.88903e-09 0)
(0.187042 1.01671e-08 0)
(0.187042 1.02957e-08 0)
(0.187042 9.91244e-09 0)
(0.187042 8.83807e-09 0)
(0.187042 6.57383e-09 0)
(0.187042 2.56654e-09 0)
(0.187042 -3.01402e-09 0)
(0.187042 -8.59367e-09 0)
(0.187042 -1.16906e-08 0)
(0.187042 -1.05198e-08 0)
(0.187042 -5.47406e-09 0)
(0.187042 7.14919e-10 0)
(0.187042 4.68097e-09 0)
(0.187042 4.82054e-09 0)
(0.187042 2.23142e-09 0)
(0.187042 -2.88776e-10 0)
(0.187042 -6.6445e-10 0)
(0.187042 8.35782e-10 0)
(0.187042 2.07494e-09 0)
(0.187042 1.23255e-09 0)
(0.187042 -1.34935e-09 0)
(0.187042 -3.51769e-09 0)
(0.187042 -3.17636e-09 0)
(0.187042 -3.0911e-10 0)
(0.187042 2.86064e-09 0)
(0.187042 3.77861e-09 0)
(0.187042 1.83293e-09 0)
(0.187042 -1.48939e-09 0)
(0.187042 -4.35616e-09 0)
(0.187042 -6.13154e-09 0)
(0.187042 -7.61026e-09 0)
(0.187042 -9.63008e-09 0)
(0.187042 -1.16858e-08 0)
(0.187042 -1.22402e-08 0)
(0.187042 -1.00732e-08 0)
(0.187042 -5.74349e-09 0)
(0.187042 -1.33223e-09 0)
(0.187042 1.19991e-09 0)
(0.187042 1.6087e-09 0)
(0.187042 1.11926e-09 0)
(0.187042 9.04455e-10 0)
(0.187042 9.13227e-10 0)
(0.187042 2.86436e-10 0)
(0.187042 -1.24109e-09 0)
(0.187042 -2.64407e-09 0)
(0.187042 -2.50464e-09 0)
(0.187042 -5.53221e-10 0)
(0.187042 1.76906e-09 0)
(0.187042 2.46365e-09 0)
(0.187042 8.44145e-10 0)
(0.187042 -1.80205e-09 0)
(0.187042 -3.38054e-09 0)
(0.187042 -2.84201e-09 0)
(0.187042 -1.02317e-09 0)
(0.187042 2.8572e-10 0)
(0.187042 2.92157e-11 0)
(0.187042 -1.33593e-09 0)
(0.187042 -2.4428e-09 0)
(0.187042 -2.38033e-09 0)
(0.187042 -1.52703e-09 0)
(0.187042 -1.0893e-09 0)
(0.187042 -1.93572e-09 0)
(0.187042 -3.91306e-09 0)
(0.187042 -6.12008e-09 0)
(0.187042 -7.75322e-09 0)
(0.187042 -8.58584e-09 0)
(0.187042 -8.75039e-09 0)
(0.187042 -8.26912e-09 0)
(0.187042 -6.94504e-09 0)
(0.187042 -4.66252e-09 0)
(0.187042 -1.91379e-09 0)
(0.187042 3.5225e-10 0)
(0.187042 1.584e-09 0)
(0.187042 2.35672e-09 0)
(0.187042 4.09906e-09 0)
(0.187042 7.89725e-09 0)
(0.187042 1.30548e-08 0)
(0.187042 1.72183e-08 0)
(0.187042 1.84579e-08 0)
(0.187042 1.76892e-08 0)
(0.187042 1.82267e-08 0)
(0.187042 2.22954e-08 0)
(0.187042 2.81021e-08 0)
(0.187042 2.93192e-08 0)
(0.187042 2.42867e-08 0)
(0.172157 3.83217e-08 0)
(0.172157 3.61224e-08 0)
(0.172157 2.85041e-08 0)
(0.172157 2.61608e-08 0)
(0.172157 3.26766e-08 0)
(0.172157 3.53167e-08 0)
(0.172157 2.57197e-08 0)
(0.172157 8.39395e-09 0)
(0.172157 -7.03116e-09 0)
(0.172157 -1.50041e-08 0)
(0.172157 -1.58035e-08 0)
(0.172157 -1.20285e-08 0)
(0.172157 -5.78304e-09 0)
(0.172157 1.54406e-09 0)
(0.172157 8.4584e-09 0)
(0.172157 1.35606e-08 0)
(0.172157 1.60971e-08 0)
(0.172157 1.59316e-08 0)
(0.172157 1.37458e-08 0)
(0.172157 1.02899e-08 0)
(0.172157 5.84029e-09 0)
(0.172157 3.79628e-10 0)
(0.172157 -5.69859e-09 0)
(0.172157 -1.08905e-08 0)
(0.172157 -1.30345e-08 0)
(0.172157 -1.0723e-08 0)
(0.172157 -4.61222e-09 0)
(0.172157 2.46007e-09 0)
(0.172157 7.16321e-09 0)
(0.172157 7.7609e-09 0)
(0.172157 5.01939e-09 0)
(0.172157 1.34133e-09 0)
(0.172157 -1.18184e-09 0)
(0.172157 -2.18905e-09 0)
(0.172157 -2.73106e-09 0)
(0.172157 -3.59223e-09 0)
(0.172157 -4.11246e-09 0)
(0.172157 -2.52976e-09 0)
(0.172157 2.20408e-09 0)
(0.172157 8.91278e-09 0)
(0.172157 1.46595e-08 0)
(0.172157 1.66689e-08 0)
(0.172157 1.4439e-08 0)
(0.172157 9.66486e-09 0)
(0.172157 4.5651e-09 0)
(0.172157 4.32388e-10 0)
(0.172157 -2.74468e-09 0)
(0.172156 -5.349e-09 0)
(0.172156 -7.05743e-09 0)
(0.172156 -6.88305e-09 0)
(0.172156 -4.32211e-09 0)
(0.172156 -3.47676e-10 0)
(0.172156 2.99702e-09 0)
(0.172156 4.22574e-09 0)
(0.172156 3.53541e-09 0)
(0.172156 2.35788e-09 0)
(0.172156 1.80336e-09 0)
(0.172156 1.69938e-09 0)
(0.172156 1.16564e-09 0)
(0.172156 -3.62307e-11 0)
(0.172156 -9.72833e-10 0)
(0.172156 -4.24532e-10 0)
(0.172156 1.63526e-09 0)
(0.172156 3.75737e-09 0)
(0.172156 4.16416e-09 0)
(0.172156 2.43951e-09 0)
(0.172156 -9.90552e-11 0)
(0.172156 -1.51991e-09 0)
(0.172156 -8.77048e-10 0)
(0.172156 1.15508e-09 0)
(0.172156 3.10383e-09 0)
(0.172156 4.13087e-09 0)
(0.172156 4.62086e-09 0)
(0.172156 5.55998e-09 0)
(0.172156 7.39515e-09 0)
(0.172156 9.47368e-09 0)
(0.172156 1.04812e-08 0)
(0.172156 9.51674e-09 0)
(0.172156 6.70041e-09 0)
(0.172156 2.90247e-09 0)
(0.172156 -9.40033e-10 0)
(0.172156 -4.17122e-09 0)
(0.172156 -6.33323e-09 0)
(0.172156 -7.10793e-09 0)
(0.172156 -6.26564e-09 0)
(0.172156 -4.13802e-09 0)
(0.172156 -1.90815e-09 0)
(0.172156 -9.6909e-10 0)
(0.172156 -1.7144e-09 0)
(0.172156 -2.788e-09 0)
(0.172156 -1.82147e-09 0)
(0.172156 2.50847e-09 0)
(0.172156 8.97433e-09 0)
(0.172156 1.43372e-08 0)
(0.172156 1.62993e-08 0)
(0.172156 1.5951e-08 0)
(0.172156 1.60089e-08 0)
(0.172156 1.69093e-08 0)
(0.172156 1.55161e-08 0)
(0.172156 1.22084e-08 0)
(0.142343 3.83849e-08 0)
(0.142343 3.5014e-08 0)
(0.142343 2.53454e-08 0)
(0.142343 2.0497e-08 0)
(0.142343 2.68018e-08 0)
(0.142343 3.36552e-08 0)
(0.142343 2.84101e-08 0)
(0.142343 9.77181e-09 0)
(0.142343 -1.31625e-08 0)
(0.142343 -3.03209e-08 0)
(0.142343 -3.68795e-08 0)
(0.142343 -3.32761e-08 0)
(0.142343 -2.27236e-08 0)
(0.142343 -8.96967e-09 0)
(0.142343 4.33856e-09 0)
(0.142343 1.42265e-08 0)
(0.142343 1.89452e-08 0)
(0.142343 1.85622e-08 0)
(0.142343 1.4505e-08 0)
(0.142343 9.04839e-09 0)
(0.142343 4.00275e-09 0)
(0.142343 -4.27831e-11 0)
(0.142343 -3.46624e-09 0)
(0.142343 -6.7311e-09 0)
(0.142343 -9.20904e-09 0)
(0.142343 -9.38901e-09 0)
(0.142343 -6.09781e-09 0)
(0.142343 1.41694e-11 0)
(0.142343 6.28851e-09 0)
(0.142343 9.70808e-09 0)
(0.142343 8.64808e-09 0)
(0.142343 3.95405e-09 0)
(0.142343 -1.73204e-09 0)
(0.142343 -5.80944e-09 0)
(0.142343 -7.15315e-09 0)
(0.142343 -6.22251e-09 0)
(0.142343 -3.81131e-09 0)
(0.142343 1.97779e-11 0)
(0.142343 5.7307e-09 0)
(0.142343 1.31144e-08 0)
(0.142343 2.04294e-08 0)
(0.142343 2.4778e-08 0)
(0.142343 2.42067e-08 0)
(0.142343 1.92058e-08 0)
(0.142343 1.22486e-08 0)
(0.142343 6.10391e-09 0)
(0.142343 2.26082e-09 0)
(0.142343 4.57245e-10 0)
(0.142343 -2.45177e-10 0)
(0.142343 -3.20593e-10 0)
(0.142343 4.60505e-10 0)
(0.142343 2.18345e-09 0)
(0.142343 4.07545e-09 0)
(0.142343 4.86055e-09 0)
(0.142343 3.96359e-09 0)
(0.142343 2.21399e-09 0)
(0.142343 1.09676e-09 0)
(0.142343 1.33606e-09 0)
(0.142343 2.27719e-09 0)
(0.142343 2.66272e-09 0)
(0.142343 2.05558e-09 0)
(0.142343 1.29773e-09 0)
(0.142343 1.55243e-09 0)
(0.142343 3.00499e-09 0)
(0.142343 4.47533e-09 0)
(0.142343 4.56253e-09 0)
(0.142343 3.01694e-09 0)
(0.142343 1.01279e-09 0)
(0.142343 2.46033e-10 0)
(0.142343 1.55635e-09 0)
(0.142343 4.33019e-09 0)
(0.142343 7.3437e-09 0)
(0.142343 9.76896e-09 0)
(0.142343 1.16919e-08 0)
(0.142343 1.36712e-08 0)
(0.142343 1.58572e-08 0)
(0.142343 1.75411e-08 0)
(0.142343 1.76418e-08 0)
(0.142343 1.55273e-08 0)
(0.142343 1.14536e-08 0)
(0.142343 6.32646e-09 0)
(0.142343 1.20898e-09 0)
(0.142343 -2.98881e-09 0)
(0.142343 -5.56677e-09 0)
(0.142343 -6.23071e-09 0)
(0.142343 -5.1814e-09 0)
(0.142343 -3.42164e-09 0)
(0.142343 -2.63201e-09 0)
(0.142343 -4.11772e-09 0)
(0.142343 -7.43469e-09 0)
(0.142343 -1.00182e-08 0)
(0.142343 -8.74563e-09 0)
(0.142343 -2.60605e-09 0)
(0.142343 5.83087e-09 0)
(0.142343 1.20966e-08 0)
(0.142343 1.34069e-08 0)
(0.142343 1.04134e-08 0)
(0.142343 5.46167e-09 0)
(0.142343 7.19291e-10 0)
(0.142343 4.4128e-10 0)
(0.0975234 2.70803e-08 0)
(0.0975234 2.48796e-08 0)
(0.0975235 1.80444e-08 0)
(0.0975235 1.28059e-08 0)
(0.0975235 1.45953e-08 0)
(0.0975235 1.9496e-08 0)
(0.0975235 1.8671e-08 0)
(0.0975235 7.26026e-09 0)
(0.0975235 -1.07274e-08 0)
(0.0975235 -2.6689e-08 0)
(0.0975236 -3.40009e-08 0)
(0.0975236 -3.1058e-08 0)
(0.0975236 -2.04716e-08 0)
(0.0975236 -6.6094e-09 0)
(0.0975236 6.53807e-09 0)
(0.0975236 1.57885e-08 0)
(0.0975236 1.89475e-08 0)
(0.0975236 1.61797e-08 0)
(0.0975236 9.5378e-09 0)
(0.0975236 2.15579e-09 0)
(0.0975236 -3.13135e-09 0)
(0.0975236 -5.15164e-09 0)
(0.0975236 -4.61875e-09 0)
(0.0975236 -3.49142e-09 0)
(0.0975236 -3.14611e-09 0)
(0.0975236 -3.37294e-09 0)
(0.0975236 -2.65957e-09 0)
(0.0975236 2.19549e-10 0)
(0.0975236 4.57864e-09 0)
(0.0975235 8.04226e-09 0)
(0.0975235 8.11183e-09 0)
(0.0975235 4.08784e-09 0)
(0.0975235 -2.24804e-09 0)
(0.0975235 -7.64705e-09 0)
(0.0975235 -9.38565e-09 0)
(0.0975235 -7.03717e-09 0)
(0.0975235 -2.01137e-09 0)
(0.0975235 3.73955e-09 0)
(0.0975235 9.10472e-09 0)
(0.0975235 1.38828e-08 0)
(0.0975235 1.77577e-08 0)
(0.0975235 1.96741e-08 0)
(0.0975235 1.83029e-08 0)
(0.0975235 1.35032e-08 0)
(0.0975235 7.03165e-09 0)
(0.0975235 1.5824e-09 0)
(0.0975235 -9.01936e-10 0)
(0.0975235 -3.5881e-10 0)
(0.0975235 1.68899e-09 0)
(0.0975235 3.40403e-09 0)
(0.0975235 3.94203e-09 0)
(0.0975235 3.68397e-09 0)
(0.0975235 3.22741e-09 0)
(0.0975235 2.53509e-09 0)
(0.0975235 1.33871e-09 0)
(0.0975235 -1.86923e-10 0)
(0.0975235 -1.10494e-09 0)
(0.0975235 -5.22427e-10 0)
(0.0975235 1.36334e-09 0)
(0.0975235 3.23817e-09 0)
(0.0975235 3.73333e-09 0)
(0.0975235 2.70108e-09 0)
(0.0975235 1.35706e-09 0)
(0.0975235 1.04318e-09 0)
(0.0975235 2.05114e-09 0)
(0.0975235 3.28169e-09 0)
(0.0975235 3.46888e-09 0)
(0.0975235 2.41968e-09 0)
(0.0975235 1.26568e-09 0)
(0.0975235 1.42012e-09 0)
(0.0975235 3.41509e-09 0)
(0.0975235 6.50697e-09 0)
(0.0975235 9.36449e-09 0)
(0.0975235 1.11268e-08 0)
(0.0975235 1.18765e-08 0)
(0.0975234 1.21784e-08 0)
(0.0975234 1.2327e-08 0)
(0.0975234 1.19816e-08 0)
(0.0975234 1.05388e-08 0)
(0.0975234 7.77963e-09 0)
(0.0975234 4.11583e-09 0)
(0.0975234 2.65524e-10 0)
(0.0975234 -3.00022e-09 0)
(0.0975234 -4.98167e-09 0)
(0.0975234 -5.36037e-09 0)
(0.0975234 -4.30692e-09 0)
(0.0975234 -2.54802e-09 0)
(0.0975234 -1.48269e-09 0)
(0.0975234 -2.60825e-09 0)
(0.0975234 -6.23549e-09 0)
(0.0975234 -1.04381e-08 0)
(0.0975234 -1.16197e-08 0)
(0.0975234 -7.14503e-09 0)
(0.0975234 1.86409e-09 0)
(0.0975234 1.04512e-08 0)
(0.0975234 1.29445e-08 0)
(0.0975234 7.33602e-09 0)
(0.0975234 -3.02804e-09 0)
(0.0975234 -1.0711e-08 0)
(0.0975234 -8.01447e-09 0)
(0.0375887 9.38402e-09 0)
(0.0375887 9.19102e-09 0)
(0.0375887 7.45211e-09 0)
(0.0375888 5.03234e-09 0)
(0.0375888 4.20746e-09 0)
(0.0375888 5.17822e-09 0)
(0.0375888 5.66206e-09 0)
(0.0375888 2.90084e-09 0)
(0.0375888 -2.77717e-09 0)
(0.0375888 -8.37749e-09 0)
(0.0375888 -1.09561e-08 0)
(0.0375888 -9.54094e-09 0)
(0.0375888 -5.17054e-09 0)
(0.0375888 1.63048e-10 0)
(0.0375888 4.93673e-09 0)
(0.0375888 7.86658e-09 0)
(0.0375888 8.11393e-09 0)
(0.0375888 5.78886e-09 0)
(0.0375888 1.98751e-09 0)
(0.0375888 -1.7466e-09 0)
(0.0375888 -4.00623e-09 0)
(0.0375888 -4.19009e-09 0)
(0.0375888 -2.78423e-09 0)
(0.0375888 -9.5217e-10 0)
(0.0375888 2.03777e-10 0)
(0.0375888 3.80916e-10 0)
(0.0375888 1.79524e-10 0)
(0.0375888 5.46377e-10 0)
(0.0375888 1.73154e-09 0)
(0.0375888 2.95819e-09 0)
(0.0375888 3.06524e-09 0)
(0.0375888 1.46244e-09 0)
(0.0375888 -1.32396e-09 0)
(0.0375888 -3.79266e-09 0)
(0.0375888 -4.49038e-09 0)
(0.0375888 -3.06012e-09 0)
(0.0375888 -2.13205e-10 0)
(0.0375888 2.71927e-09 0)
(0.0375888 4.81275e-09 0)
(0.0375888 5.8789e-09 0)
(0.0375888 6.14516e-09 0)
(0.0375888 5.75608e-09 0)
(0.0375888 4.51334e-09 0)
(0.0375888 2.33006e-09 0)
(0.0375888 -2.31076e-10 0)
(0.0375888 -2.09886e-09 0)
(0.0375888 -2.44588e-09 0)
(0.0375888 -1.24575e-09 0)
(0.0375888 6.41455e-10 0)
(0.0375888 2.09302e-09 0)
(0.0375888 2.44433e-09 0)
(0.0375888 1.90188e-09 0)
(0.0375888 1.06753e-09 0)
(0.0375888 2.87548e-10 0)
(0.0375888 -3.39335e-10 0)
(0.0375888 -8.80567e-10 0)
(0.0375888 -1.12523e-09 0)
(0.0375888 -7.34902e-10 0)
(0.0375888 2.79698e-10 0)
(0.0375888 1.41584e-09 0)
(0.0375888 1.9122e-09 0)
(0.0375888 1.44921e-09 0)
(0.0375888 5.03675e-10 0)
(0.0375888 -1.41117e-10 0)
(0.0375888 5.09187e-11 0)
(0.0375888 7.8497e-10 0)
(0.0375888 1.29736e-09 0)
(0.0375888 1.1471e-09 0)
(0.0375888 6.27551e-10 0)
(0.0375888 3.8563e-10 0)
(0.0375888 9.27676e-10 0)
(0.0375888 2.08726e-09 0)
(0.0375888 3.22052e-09 0)
(0.0375888 3.74277e-09 0)
(0.0375887 3.55819e-09 0)
(0.0375887 3.0036e-09 0)
(0.0375887 2.46283e-09 0)
(0.0375887 2.02654e-09 0)
(0.0375887 1.51215e-09 0)
(0.0375887 7.60911e-10 0)
(0.0375887 -1.6139e-10 0)
(0.0375887 -1.11164e-09 0)
(0.0375887 -1.83834e-09 0)
(0.0375887 -2.15272e-09 0)
(0.0375887 -1.913e-09 0)
(0.0375887 -1.18666e-09 0)
(0.0375887 -2.51328e-10 0)
(0.0375887 3.63107e-10 0)
(0.0375887 1.03579e-11 0)
(0.0375887 -1.57757e-09 0)
(0.0375887 -3.70799e-09 0)
(0.0375887 -4.70894e-09 0)
(0.0375888 -3.051e-09 0)
(0.0375888 1.04536e-09 0)
(0.0375887 5.23169e-09 0)
(0.0375887 6.32089e-09 0)
(0.0375887 2.78427e-09 0)
(0.0375887 -3.67175e-09 0)
(0.0375887 -7.99675e-09 0)
(0.0375887 -5.67855e-09 0)
)
;

boundaryField
{
    inlet
    {
        type            zeroGradient;
    }
    outlet
    {
        type            zeroGradient;
    }
    walls
    {
        type            noSlip;
    }
    frontAndBack
    {
        type            empty;
    }
}


// ************************************************************************* //
