/*--------------------------------*- C++ -*----------------------------------*\
| =========                 |                                                 |
| \\      /  F ield         | OpenFOAM: The Open Source CFD Toolbox           |
|  \\    /   O peration     | Version:  2406                                  |
|   \\  /    A nd           | Website:  www.openfoam.com                      |
|    \\/     M anipulation  |                                                 |
\*---------------------------------------------------------------------------*/
FoamFile
{
    version     2.0;
    format      ascii;
    arch        "LSB;label=32;scalar=64";
    class       surfaceScalarField;
    location    "0.5";
    object      phi;
}
// * * * * * * * * * * * * * * * * * * * * * * * * * * * * * * * * * * * * * //

dimensions      [0 3 -1 0 0 0 0];

oriented        oriented;

internalField   nonuniform List<scalar> 
4335
(
3.16431e-05
3.10214e-12
3.16431e-05
1.37676e-11
3.16431e-05
1.78639e-11
3.16432e-05
-1.96897e-11
3.16432e-05
-3.85024e-11
3.16433e-05
-3.44172e-11
3.16433e-05
-3.14088e-11
3.16433e-05
-9.11819e-12
3.16434e-05
-3.08443e-13
3.16434e-05
7.83153e-12
3.16434e-05
1.33369e-11
3.16434e-05
-2.45375e-12
3.16434e-05
-1.68057e-11
3.16434e-05
-8.71042e-12
3.16434e-05
1.4166e-11
3.16434e-05
3.03236e-11
3.16433e-05
2.97317e-11
3.16433e-05
1.51896e-11
3.16433e-05
-2.65614e-12
3.16432e-05
-1.29854e-11
3.16433e-05
-1.26349e-11
3.16433e-05
-6.84673e-12
3.16433e-05
-4.23866e-12
3.16433e-05
-7.59783e-12
3.16433e-05
-1.33582e-11
3.16433e-05
-1.56128e-11
3.16434e-05
-1.4815e-11
3.16434e-05
-1.38593e-11
3.16434e-05
-1.31143e-11
3.16434e-05
-1.02884e-11
3.16434e-05
-4.15491e-12
3.16434e-05
3.057e-12
3.16434e-05
7.92515e-12
3.16434e-05
8.94837e-12
3.16434e-05
7.1883e-12
3.16434e-05
5.13397e-12
3.16434e-05
5.09781e-12
3.16434e-05
7.49838e-12
3.16434e-05
1.02018e-11
3.16434e-05
1.08088e-11
3.16434e-05
7.44701e-12
3.16434e-05
5.50602e-13
3.16434e-05
-7.09935e-12
3.16434e-05
-1.04168e-11
3.16434e-05
-6.94727e-12
3.16435e-05
5.70291e-13
3.16435e-05
5.97035e-12
3.16435e-05
5.34244e-12
3.16435e-05
6.16534e-13
3.16435e-05
-2.36987e-12
3.16435e-05
4.76298e-13
3.16435e-05
6.93407e-12
3.16435e-05
1.06959e-11
3.16435e-05
8.91312e-12
3.16435e-05
4.22711e-12
3.16435e-05
2.60633e-12
3.16434e-05
6.37939e-12
3.16434e-05
1.05884e-11
3.16434e-05
8.95352e-12
3.16434e-05
2.31896e-13
3.16434e-05
-9.12361e-12
3.16434e-05
-1.16733e-11
3.16434e-05
-6.58811e-12
3.16434e-05
-3.17544e-13
3.16434e-05
-4.20482e-13
3.16434e-05
-6.02464e-12
3.16434e-05
-9.3767e-12
3.16434e-05
-4.42212e-12
3.16434e-05
5.4521e-12
3.16434e-05
1.14482e-11
3.16434e-05
7.27444e-12
3.16434e-05
-2.61028e-12
3.16434e-05
-8.63823e-12
3.16434e-05
-5.66111e-12
3.16434e-05
1.84908e-12
3.16434e-05
4.56863e-12
3.16434e-05
-1.60792e-12
3.16434e-05
-9.82912e-12
3.16434e-05
-1.13351e-11
3.16434e-05
-4.43737e-12
3.16434e-05
3.11608e-12
3.16434e-05
2.60988e-12
3.16434e-05
-5.76919e-12
3.16434e-05
-1.24848e-11
3.16434e-05
-9.45239e-12
3.16434e-05
1.33708e-12
3.16434e-05
1.01009e-11
3.16434e-05
9.20984e-12
3.16434e-05
1.08834e-12
3.16434e-05
-3.66405e-12
3.16434e-05
1.05636e-12
3.16434e-05
1.03473e-11
3.16434e-05
1.43592e-11
3.16434e-05
8.8056e-12
3.16434e-05
-3.28286e-13
3.16434e-05
-2.75791e-12
3.16433e-05
4.16649e-12
3.16433e-05
1.31854e-11
3.16433e-05
1.46785e-11
3.16433e-05
7.53702e-12
3.16433e-05
-1.17191e-13
3.16433e-05
4.12044e-13
3.16433e-05
8.83571e-12
3.16433e-05
1.62268e-11
3.16433e-05
1.53314e-11
3.16433e-05
7.43995e-12
3.16433e-05
1.12324e-12
3.16432e-05
2.85334e-12
3.16432e-05
9.252e-12
3.16432e-05
1.17255e-11
3.16432e-05
5.53385e-12
3.16432e-05
-4.22849e-12
3.16432e-05
-8.83529e-12
3.16432e-05
-4.65387e-12
3.16432e-05
2.27489e-12
3.16432e-05
3.47199e-12
3.16433e-05
-3.47037e-12
3.16433e-05
-1.18813e-11
3.16433e-05
-1.39353e-11
3.16433e-05
-8.49718e-12
3.16433e-05
-2.76161e-12
3.16433e-05
-3.09176e-12
3.16433e-05
-9.07755e-12
3.16433e-05
-1.38705e-11
3.16433e-05
-1.16511e-11
3.16433e-05
-4.56086e-12
3.16434e-05
-4.90809e-13
3.16434e-05
-4.06352e-12
3.16434e-05
-1.09391e-11
3.16434e-05
-1.39376e-11
3.16434e-05
-1.05745e-11
3.16434e-05
-4.52829e-12
3.16434e-05
-1.71018e-12
3.16434e-05
-4.44431e-12
3.16435e-05
-8.7543e-12
3.16435e-05
-8.54069e-12
3.16435e-05
-3.11232e-12
3.16435e-05
1.99977e-12
3.16435e-05
2.17328e-12
3.16435e-05
-1.47996e-12
3.16435e-05
-4.87963e-12
3.16435e-05
-5.49037e-12
3.16435e-05
-3.35918e-12
3.16435e-05
-9.81337e-13
3.16435e-05
-6.68931e-13
3.16435e-05
-1.71683e-12
3.16435e-05
-4.34481e-12
3.16435e-05
-5.51501e-12
3.16435e-05
-3.41538e-12
-2.30402e-12
8.64435e-05
-8.29059e-12
8.64435e-05
-3.55665e-11
8.64434e-05
-2.76745e-11
8.64435e-05
-1.82194e-11
8.64435e-05
-3.04371e-11
8.64436e-05
-2.76925e-11
8.64436e-05
-4.43892e-11
8.64436e-05
-3.884e-11
8.64436e-05
-2.01847e-11
8.64437e-05
-1.94762e-11
8.64437e-05
-2.1171e-11
8.64437e-05
-1.5821e-11
8.64437e-05
-2.3444e-12
8.64437e-05
1.5503e-11
8.64436e-05
3.03869e-11
8.64436e-05
3.26259e-11
8.64435e-05
2.20733e-11
8.64435e-05
9.76126e-12
8.64434e-05
4.13497e-12
8.64434e-05
3.90824e-12
8.64435e-05
2.49017e-13
8.64435e-05
-1.04979e-11
8.64435e-05
-2.34573e-11
8.64435e-05
-2.88687e-11
8.64435e-05
-2.69013e-11
8.64435e-05
-2.4011e-11
8.64435e-05
-2.62758e-11
8.64436e-05
-3.22103e-11
8.64436e-05
-3.33647e-11
8.64436e-05
-2.34235e-11
8.64436e-05
-5.39936e-12
8.64436e-05
9.2766e-12
8.64436e-05
1.42672e-11
8.64436e-05
1.18089e-11
8.64436e-05
9.88876e-12
8.64436e-05
1.28331e-11
8.64436e-05
1.78461e-11
8.64436e-05
1.93717e-11
8.64436e-05
1.50076e-11
8.64436e-05
7.6248e-12
8.64436e-05
2.5052e-12
8.64436e-05
1.46916e-12
8.64436e-05
1.28369e-12
8.64436e-05
-1.01489e-12
8.64436e-05
-3.76977e-12
8.64437e-05
-2.4925e-12
8.64437e-05
4.58249e-12
8.64437e-05
1.35414e-11
8.64437e-05
1.79409e-11
8.64437e-05
1.58495e-11
8.64437e-05
1.17347e-11
8.64437e-05
1.24889e-11
8.64437e-05
1.95547e-11
8.64437e-05
2.71718e-11
8.64437e-05
2.76935e-11
8.64436e-05
1.95691e-11
8.64436e-05
9.04543e-12
8.64436e-05
3.09181e-12
8.64436e-05
2.18494e-12
8.64436e-05
4.73688e-13
8.64436e-05
-6.77652e-12
8.64436e-05
-1.68201e-11
8.64436e-05
-2.16314e-11
8.64436e-05
-1.59947e-11
8.64436e-05
-4.2277e-12
8.64436e-05
3.87124e-12
8.64436e-05
2.73891e-12
8.64436e-05
-3.4396e-12
8.64436e-05
-5.96168e-12
8.64436e-05
-1.11273e-12
8.64436e-05
5.23723e-12
8.64436e-05
4.59227e-12
8.64436e-05
-4.76725e-12
8.64436e-05
-1.50569e-11
8.64436e-05
-1.701e-11
8.64436e-05
-1.03265e-11
8.64436e-05
-3.90796e-12
8.64436e-05
-6.58424e-12
8.64436e-05
-1.74488e-11
8.64436e-05
-2.65225e-11
8.64436e-05
-2.56675e-11
8.64436e-05
-1.63884e-11
8.64436e-05
-8.59209e-12
8.64436e-05
-9.13344e-12
8.64436e-05
-1.42595e-11
8.64436e-05
-1.42371e-11
8.64436e-05
-4.36934e-12
8.64436e-05
9.42544e-12
8.64436e-05
1.63672e-11
8.64436e-05
1.2506e-11
8.64436e-05
5.38219e-12
8.64436e-05
4.92119e-12
8.64436e-05
1.3459e-11
8.64436e-05
2.24929e-11
8.64436e-05
2.28617e-11
8.64435e-05
1.40687e-11
8.64435e-05
5.19366e-12
8.64435e-05
5.27713e-12
8.64435e-05
1.30211e-11
8.64435e-05
1.91109e-11
8.64435e-05
1.65971e-11
8.64435e-05
8.10997e-12
8.64435e-05
3.54178e-12
8.64435e-05
8.5949e-12
8.64435e-05
1.90742e-11
8.64435e-05
2.42162e-11
8.64434e-05
1.91583e-11
8.64434e-05
9.63067e-12
8.64434e-05
5.41609e-12
8.64434e-05
9.92227e-12
8.64434e-05
1.66709e-11
8.64434e-05
1.68951e-11
8.64434e-05
8.80601e-12
8.64434e-05
-3.00704e-13
8.64434e-05
-3.21351e-12
8.64434e-05
3.22655e-13
8.64434e-05
2.8106e-12
8.64434e-05
-2.09783e-12
8.64434e-05
-1.16257e-11
8.64434e-05
-1.78506e-11
8.64434e-05
-1.59447e-11
8.64435e-05
-9.09693e-12
8.64435e-05
-5.36002e-12
8.64435e-05
-9.08903e-12
8.64435e-05
-1.59554e-11
8.64435e-05
-1.75398e-11
8.64435e-05
-1.25268e-11
8.64435e-05
-6.99098e-12
8.64435e-05
-7.47971e-12
8.64436e-05
-1.3502e-11
8.64436e-05
-1.87604e-11
8.64436e-05
-1.75308e-11
8.64436e-05
-1.04141e-11
8.64436e-05
-3.56979e-12
8.64436e-05
-2.92257e-12
8.64436e-05
-7.0118e-12
8.64437e-05
-8.97547e-12
8.64437e-05
-5.82827e-12
8.64437e-05
-1.53321e-12
8.64437e-05
-1.06305e-12
8.64437e-05
-4.4247e-12
8.64437e-05
-8.24317e-12
8.64437e-05
-9.12622e-12
8.64437e-05
-6.84196e-12
8.64437e-05
-5.2793e-12
8.64437e-05
-6.3376e-12
8.64437e-05
-1.07981e-11
8.64437e-05
-1.45883e-11
8.64438e-05
-1.7862e-11
-2.14212e-11
0.000132776
7.19321e-11
0.000132776
4.86536e-11
0.000132776
6.44912e-11
0.000132776
7.21339e-11
0.000132776
3.78558e-11
0.000132776
1.05245e-11
0.000132776
-9.67446e-12
0.000132776
-2.63826e-11
0.000132776
-1.48513e-11
0.000132776
1.21922e-11
0.000132776
3.06586e-11
0.000132776
3.27237e-11
0.000132776
3.2645e-11
0.000132776
3.85348e-11
0.000132776
4.72221e-11
0.000132776
5.15908e-11
0.000132776
4.7911e-11
0.000132776
4.15205e-11
0.000132776
3.64226e-11
0.000132776
3.06365e-11
0.000132776
1.98294e-11
0.000132776
4.2503e-12
0.000132776
-1.13352e-11
0.000132776
-2.1075e-11
0.000132776
-2.55627e-11
0.000132776
-2.75341e-11
0.000132776
-2.83697e-11
0.000132776
-2.68393e-11
0.000132776
-2.10259e-11
0.000132776
-1.04341e-11
0.000132776
3.24342e-12
0.000132776
1.46232e-11
0.000132776
2.02338e-11
0.000132776
1.99625e-11
0.000132776
1.73346e-11
0.000132776
1.6051e-11
0.000132776
1.68157e-11
0.000132776
1.77983e-11
0.000132776
1.66388e-11
0.000132776
1.2546e-11
0.000132776
7.38372e-12
0.000132776
5.10487e-12
0.000132776
6.12502e-12
0.000132776
8.34897e-12
0.000132776
9.07912e-12
0.000132776
8.74328e-12
0.000132776
1.0254e-11
0.000132776
1.55124e-11
0.000132776
2.25607e-11
0.000132776
2.68728e-11
0.000132776
2.61786e-11
0.000132776
2.31246e-11
0.000132776
2.30416e-11
0.000132776
2.8152e-11
0.000132776
3.3976e-11
0.000132776
3.35449e-11
0.000132776
2.4025e-11
0.000132776
1.05491e-11
0.000132776
1.7341e-12
0.000132776
1.09945e-12
0.000132776
4.61381e-12
0.000132776
5.32908e-12
0.000132776
1.122e-12
0.000132776
-3.44628e-12
0.000132776
-2.7232e-12
0.000132776
3.01308e-12
0.000132776
7.28474e-12
0.000132776
4.07589e-12
0.000132776
-5.05554e-12
0.000132776
-1.2237e-11
0.000132776
-1.17929e-11
0.000132776
-5.95487e-12
0.000132776
-2.97344e-12
0.000132776
-7.86157e-12
0.000132776
-1.72101e-11
0.000132776
-2.30499e-11
0.000132776
-2.14367e-11
0.000132776
-1.69134e-11
0.000132776
-1.72712e-11
0.000132776
-2.46102e-11
0.000132776
-3.25013e-11
0.000132776
-3.2689e-11
0.000132776
-2.37911e-11
0.000132776
-1.31182e-11
0.000132776
-8.83075e-12
0.000132776
-1.12755e-11
0.000132776
-1.29566e-11
0.000132776
-6.85476e-12
0.000132776
4.7983e-12
0.000132776
1.3359e-11
0.000132776
1.30016e-11
0.000132776
6.68645e-12
0.000132776
3.40532e-12
0.000132776
8.07153e-12
0.000132776
1.61e-11
0.000132776
1.87546e-11
0.000132776
1.26372e-11
0.000132776
3.44988e-12
0.000132776
3.44803e-13
0.000132776
6.0187e-12
0.000132776
1.43536e-11
0.000132776
1.74928e-11
0.000132776
1.38994e-11
0.000132776
9.93888e-12
0.000132776
1.25019e-11
0.000132776
2.08503e-11
0.000132776
2.73003e-11
0.000132776
2.58953e-11
0.000132776
1.86499e-11
0.000132776
1.32262e-11
0.000132776
1.46399e-11
0.000132776
1.94058e-11
0.000132776
1.9643e-11
0.000132776
1.23881e-11
0.000132776
2.04344e-12
0.000132776
-3.88194e-12
0.000132776
-3.01709e-12
0.000132776
-2.46355e-13
0.000132776
-2.14897e-12
0.000132776
-9.36994e-12
0.000132776
-1.61264e-11
0.000132776
-1.67454e-11
0.000132776
-1.14129e-11
0.000132776
-6.49687e-12
0.000132776
-7.61567e-12
0.000132776
-1.32448e-11
0.000132776
-1.70517e-11
0.000132776
-1.55335e-11
0.000132776
-1.16729e-11
0.000132776
-1.05885e-11
0.000132776
-1.39288e-11
0.000132776
-1.89268e-11
0.000132776
-2.09619e-11
0.000132776
-1.76291e-11
0.000132776
-1.25937e-11
0.000132776
-1.16522e-11
0.000132776
-1.48752e-11
0.000132776
-1.73273e-11
0.000132776
-1.58714e-11
0.000132776
-1.26296e-11
0.000132776
-1.11855e-11
0.000132776
-1.22172e-11
0.000132776
-1.43285e-11
0.000132776
-1.54875e-11
0.000132776
-1.60046e-11
0.000132776
-1.58748e-11
0.000132776
-1.88499e-11
0.000132776
-2.51436e-11
0.000132776
-3.41735e-11
-4.00651e-11
0.000170659
1.4559e-10
0.000170659
1.39312e-10
0.000170659
1.31225e-10
0.000170659
1.37037e-10
0.000170659
1.17945e-10
0.000170659
7.2917e-11
0.000170659
4.57682e-11
0.000170659
3.85931e-11
0.000170659
4.83732e-11
0.000170659
5.75868e-11
0.000170659
6.52605e-11
0.000170658
7.081e-11
0.000170658
7.44036e-11
0.000170658
7.47549e-11
0.000170658
7.17546e-11
0.000170658
6.94968e-11
0.000170658
6.86484e-11
0.000170658
6.69978e-11
0.000170658
6.01493e-11
0.000170658
4.68591e-11
0.000170658
3.01456e-11
0.000170658
1.44072e-11
0.000170658
3.40838e-12
0.000170658
-1.87105e-12
0.000170658
-4.74014e-12
0.000170658
-8.00134e-12
0.000170658
-1.08402e-11
0.000170658
-9.73654e-12
0.000170658
-3.75996e-12
0.000170658
4.08804e-12
0.000170658
1.08509e-11
0.000170658
1.5124e-11
0.000170658
1.79994e-11
0.000170658
1.99532e-11
0.000170658
2.05562e-11
0.000170658
2.00309e-11
0.000170658
1.95956e-11
0.000170658
2.04609e-11
0.000170658
2.24861e-11
0.000170658
2.36136e-11
0.000170658
2.13918e-11
0.000170658
1.68212e-11
0.000170658
1.30208e-11
0.000170658
1.27778e-11
0.000170658
1.54094e-11
0.000170658
1.76604e-11
0.000170658
1.716e-11
0.000170658
1.60292e-11
0.000170658
1.72943e-11
0.000170658
2.18042e-11
0.000170658
2.77376e-11
0.000170658
3.15051e-11
0.000170658
3.18866e-11
0.000170658
3.10704e-11
0.000170658
3.13282e-11
0.000170658
3.20212e-11
0.000170658
2.97764e-11
0.000170658
2.24676e-11
0.000170658
1.28582e-11
0.000170658
6.51757e-12
0.000170658
6.3387e-12
0.000170658
9.36775e-12
0.000170658
9.52795e-12
0.000170658
3.7925e-12
0.000170658
-4.71541e-12
0.000170658
-9.85697e-12
0.000170658
-8.57865e-12
0.000170658
-5.41051e-12
0.000170658
-5.60672e-12
0.000170658
-1.02694e-11
0.000170658
-1.48882e-11
0.000170658
-1.45401e-11
0.000170658
-9.72691e-12
0.000170658
-6.56118e-12
0.000170658
-1.02277e-11
0.000170658
-1.93862e-11
0.000170658
-2.74479e-11
0.000170658
-2.91658e-11
0.000170658
-2.57593e-11
0.000170658
-2.33921e-11
0.000170658
-2.56803e-11
0.000170658
-2.97535e-11
0.000170658
-2.9409e-11
0.000170658
-2.23112e-11
0.000170658
-1.26966e-11
0.000170658
-7.45289e-12
0.000170658
-8.54252e-12
0.000170658
-1.08372e-11
0.000170658
-7.93827e-12
0.000170658
6.64529e-13
0.000170658
9.38778e-12
0.000170658
1.16456e-11
0.000170658
8.07138e-12
0.000170658
4.18869e-12
0.000170658
5.4852e-12
0.000170658
1.05861e-11
0.000170658
1.36114e-11
0.000170658
1.08803e-11
0.000170658
5.15892e-12
0.000170658
3.02425e-12
0.000170658
7.49949e-12
0.000170658
1.49887e-11
0.000170658
1.91407e-11
0.000170658
1.74597e-11
0.000170658
1.39299e-11
0.000170658
1.45077e-11
0.000170658
2.02605e-11
0.000170658
2.65956e-11
0.000170658
2.76096e-11
0.000170658
2.25985e-11
0.000170658
1.67236e-11
0.000170658
1.52106e-11
0.000170658
1.66775e-11
0.000170658
1.65734e-11
0.000170658
1.13927e-11
0.000170658
3.09514e-12
0.000170658
-3.02034e-12
0.000170658
-3.54646e-12
0.000170658
-1.22247e-12
0.000170658
-1.40294e-12
0.000170658
-6.19658e-12
0.000170658
-1.25943e-11
0.000170658
-1.5356e-11
0.000170658
-1.30588e-11
0.000170658
-9.19549e-12
0.000170658
-8.87488e-12
0.000170658
-1.26731e-11
0.000170658
-1.63364e-11
0.000170658
-1.6539e-11
0.000170658
-1.45602e-11
0.000170658
-1.3445e-11
0.000170658
-1.53789e-11
0.000170658
-1.96644e-11
0.000170658
-2.22289e-11
0.000170658
-2.04565e-11
0.000170658
-1.65861e-11
0.000170658
-1.43815e-11
0.000170658
-1.51674e-11
0.000170658
-1.64474e-11
0.000170658
-1.60252e-11
0.000170658
-1.44723e-11
0.000170658
-1.3045e-11
0.000170658
-1.3462e-11
0.000170658
-1.52488e-11
0.000170658
-1.80379e-11
0.000170658
-2.11623e-11
0.000170658
-2.32892e-11
0.000170658
-2.89671e-11
0.000170658
-4.14043e-11
-4.92066e-11
0.000200106
1.16457e-10
0.000200106
1.60638e-10
0.000200106
1.681e-10
0.000200106
1.73221e-10
0.000200106
1.85095e-10
0.000200106
1.64178e-10
0.000200106
1.40938e-10
0.000200106
1.27438e-10
0.000200106
1.31858e-10
0.000200106
1.36351e-10
0.000200106
1.36665e-10
0.000200106
1.3259e-10
0.000200106
1.22759e-10
0.000200106
1.10136e-10
0.000200106
9.92416e-11
0.000200105
9.25171e-11
0.000200105
8.69734e-11
0.000200105
7.99617e-11
0.000200105
6.89368e-11
0.000200105
5.39081e-11
0.000200105
3.96773e-11
0.000200105
3.0095e-11
0.000200105
2.29188e-11
0.000200105
1.39924e-11
0.000200105
2.87123e-12
0.000200105
-6.24756e-12
0.000200105
-9.05072e-12
0.000200105
-4.8325e-12
0.000200105
2.44748e-12
0.000200105
7.99063e-12
0.000200105
9.8004e-12
0.000200105
9.93284e-12
0.000200105
1.22425e-11
0.000200105
1.78989e-11
0.000200105
2.41665e-11
0.000200105
2.7771e-11
0.000200105
2.84265e-11
0.000200105
2.83371e-11
0.000200105
2.92597e-11
0.000200105
3.02571e-11
0.000200105
2.86075e-11
0.000200105
2.29175e-11
0.000200105
1.50837e-11
0.000200105
9.28469e-12
0.000200105
8.1122e-12
0.000200105
9.82456e-12
0.000200105
1.0379e-11
0.000200105
8.04151e-12
0.000200105
5.00962e-12
0.000200105
5.27171e-12
0.000200105
1.05973e-11
0.000200105
1.80237e-11
0.000200105
2.30294e-11
0.000200105
2.36795e-11
0.000200105
2.18774e-11
0.000200105
2.11879e-11
0.000200105
2.28205e-11
0.000200105
2.42273e-11
0.000200105
2.2149e-11
0.000200105
1.64449e-11
0.000200105
1.03151e-11
0.000200105
6.55556e-12
0.000200105
4.45461e-12
0.000200105
8.33765e-13
0.000200105
-6.26367e-12
0.000200105
-1.45758e-11
0.000200105
-1.86388e-11
0.000200105
-1.64655e-11
0.000200105
-1.11531e-11
0.000200105
-8.36928e-12
0.000200105
-1.027e-11
0.000200105
-1.39302e-11
0.000200105
-1.45119e-11
0.000200105
-1.0847e-11
0.000200105
-6.80998e-12
0.000200105
-6.9484e-12
0.000200105
-1.16258e-11
0.000200105
-1.60648e-11
0.000200105
-1.59592e-11
0.000200105
-1.20778e-11
0.000200105
-9.30498e-12
0.000200105
-1.15948e-11
0.000200105
-1.70412e-11
0.000200105
-2.01649e-11
0.000200105
-1.75526e-11
0.000200105
-1.12529e-11
0.000200105
-7.01684e-12
0.000200105
-7.53547e-12
0.000200105
-9.63662e-12
0.000200105
-8.33336e-12
0.000200105
-1.64422e-12
0.000200105
5.97868e-12
0.000200105
9.29571e-12
0.000200105
7.64143e-12
0.000200105
4.71293e-12
0.000200105
5.4197e-12
0.000200105
9.92016e-12
0.000200105
1.37643e-11
0.000200105
1.31168e-11
0.000200105
8.93902e-12
0.000200105
6.21806e-12
0.000200105
8.33705e-12
0.000200105
1.33393e-11
0.000200105
1.63469e-11
0.000200105
1.45354e-11
0.000200105
1.02652e-11
0.000200105
8.40541e-12
0.000200105
1.11435e-11
0.000200105
1.56802e-11
0.000200105
1.6586e-11
0.000200105
1.32546e-11
0.000200105
9.37989e-12
0.000200105
8.86178e-12
0.000200105
1.19995e-11
0.000200105
1.49156e-11
0.000200105
1.37402e-11
0.000200105
8.54469e-12
0.000200105
3.95464e-12
0.000200105
3.15386e-12
0.000200105
4.79103e-12
0.000200105
4.84916e-12
0.000200105
1.0354e-12
0.000200105
-4.97284e-12
0.000200105
-9.12327e-12
0.000200105
-9.42541e-12
0.000200105
-8.36867e-12
0.000200105
-1.00218e-11
0.000200105
-1.48478e-11
0.000200105
-1.91726e-11
0.000200105
-2.02878e-11
0.000200105
-1.87697e-11
0.000200105
-1.7231e-11
0.000200105
-1.79257e-11
0.000200105
-2.03316e-11
0.000200105
-2.14936e-11
0.000200105
-1.94013e-11
0.000200105
-1.52871e-11
0.000200105
-1.22362e-11
0.000200105
-1.16153e-11
0.000200105
-1.19137e-11
0.000200105
-1.13644e-11
0.000200105
-9.75044e-12
0.000200105
-9.95765e-12
0.000200105
-1.27595e-11
0.000200105
-1.58126e-11
0.000200105
-1.98018e-11
0.000200105
-2.27221e-11
0.000200105
-2.81726e-11
0.000200105
-3.95557e-11
-4.62758e-11
0.000221131
1.21743e-10
0.000221131
1.51443e-10
0.000221131
1.74853e-10
0.000221131
1.9842e-10
0.000221131
2.19868e-10
0.000221131
2.19735e-10
0.000221131
2.23104e-10
0.000221131
2.26836e-10
0.000221131
2.31456e-10
0.000221131
2.269e-10
0.000221131
2.13438e-10
0.00022113
1.97947e-10
0.00022113
1.80795e-10
0.00022113
1.63969e-10
0.00022113
1.4924e-10
0.00022113
1.35357e-10
0.00022113
1.18208e-10
0.00022113
9.90658e-11
0.00022113
8.28857e-11
0.00022113
7.16823e-11
0.00022113
6.42718e-11
0.00022113
5.78977e-11
0.00022113
4.92769e-11
0.00022113
3.69492e-11
0.00022113
2.36569e-11
0.00022113
1.46163e-11
0.00022113
1.27381e-11
0.00022113
1.6151e-11
0.00022113
2.00143e-11
0.00022113
2.10848e-11
0.00022113
1.93734e-11
0.00022113
1.68433e-11
0.00022113
1.60718e-11
0.00022113
1.84297e-11
0.00022113
2.31223e-11
0.00022113
2.78452e-11
0.00022113
3.09115e-11
0.00022113
3.2171e-11
0.00022113
3.23561e-11
0.00022113
3.18525e-11
0.00022113
3.06646e-11
0.00022113
2.81293e-11
0.00022113
2.38107e-11
0.00022113
1.8404e-11
0.00022113
1.40496e-11
0.00022113
1.23652e-11
0.00022113
1.22967e-11
0.00022113
1.21292e-11
0.00022113
1.11162e-11
0.00022113
1.07163e-11
0.00022113
1.31691e-11
0.00022113
1.86219e-11
0.00022113
2.43516e-11
0.00022113
2.69215e-11
0.00022113
2.52911e-11
0.00022113
2.21051e-11
0.00022113
2.12711e-11
0.00022113
2.36693e-11
0.00022113
2.59649e-11
0.00022113
2.39883e-11
0.00022113
1.69008e-11
0.00022113
7.75505e-12
0.00022113
6.01975e-13
0.00022113
-3.50019e-12
0.00022113
-6.88975e-12
0.00022113
-1.22109e-11
0.00022113
-1.84057e-11
0.00022113
-2.15703e-11
0.00022113
-1.93852e-11
0.00022113
-1.47103e-11
0.00022113
-1.20243e-11
0.00022113
-1.36219e-11
0.00022113
-1.7228e-11
0.00022113
-1.8423e-11
0.00022113
-1.52833e-11
0.00022113
-1.03657e-11
0.00022113
-8.2702e-12
0.00022113
-1.00824e-11
0.00022113
-1.25599e-11
0.00022113
-1.21003e-11
0.00022113
-8.64948e-12
0.00022113
-6.13223e-12
0.00022113
-8.25316e-12
0.00022113
-1.41732e-11
0.00022113
-1.90121e-11
0.00022113
-1.84386e-11
0.00022113
-1.38007e-11
0.00022113
-9.63993e-12
0.00022113
-9.08058e-12
0.00022113
-1.06274e-11
0.00022113
-9.77886e-12
0.00022113
-4.74462e-12
0.00022113
1.69291e-12
0.00022113
5.20522e-12
0.00022113
4.25505e-12
0.00022113
1.86387e-12
0.00022113
2.3819e-12
0.00022113
6.62068e-12
0.00022113
1.10114e-11
0.00022113
1.15129e-11
0.00022113
8.10462e-12
0.00022113
4.86098e-12
0.00022113
5.45928e-12
0.00022113
9.30654e-12
0.00022113
1.25702e-11
0.00022113
1.23197e-11
0.00022113
9.49708e-12
0.00022113
8.01079e-12
0.00022113
1.02245e-11
0.00022113
1.40251e-11
0.00022113
1.54862e-11
0.00022113
1.35432e-11
0.00022113
1.08707e-11
0.00022113
1.0986e-11
0.00022113
1.45703e-11
0.00022113
1.83544e-11
0.00022113
1.79649e-11
0.00022113
1.32546e-11
0.00022113
8.0192e-12
0.00022113
5.50668e-12
0.00022113
5.46376e-12
0.00022113
4.93098e-12
0.00022113
1.54548e-12
0.00022113
-4.31747e-12
0.00022113
-9.01339e-12
0.00022113
-1.01937e-11
0.00022113
-9.66629e-12
0.00022113
-1.08937e-11
0.00022113
-1.43344e-11
0.00022113
-1.75752e-11
0.00022113
-1.85607e-11
0.00022113
-1.73888e-11
0.00022113
-1.56224e-11
0.00022113
-1.53792e-11
0.00022113
-1.64948e-11
0.00022113
-1.67368e-11
0.00022113
-1.45903e-11
0.00022113
-1.09614e-11
0.00022113
-8.89951e-12
0.00022113
-9.2253e-12
0.00022113
-1.08581e-11
0.00022113
-1.19342e-11
0.00022113
-1.33915e-11
0.00022113
-1.53185e-11
0.00022113
-1.75249e-11
0.00022113
-2.02286e-11
0.00022113
-2.30904e-11
0.00022113
-2.79558e-11
0.00022113
-3.65952e-11
-4.07997e-11
0.000233742
1.23853e-10
0.000233742
1.33886e-10
0.000233742
1.71796e-10
0.000233742
2.1803e-10
0.000233742
2.50709e-10
0.000233742
2.77273e-10
0.000233742
3.01989e-10
0.000233742
3.09951e-10
0.000233742
3.03692e-10
0.000233742
2.88185e-10
0.000233742
2.66518e-10
0.000233742
2.50115e-10
0.000233742
2.37452e-10
0.000233742
2.20024e-10
0.000233742
1.94731e-10
0.000233742
1.66406e-10
0.000233741
1.39283e-10
0.000233741
1.16534e-10
0.000233741
1.01633e-10
0.000233741
9.40988e-11
0.000233741
8.88664e-11
0.000233741
8.06073e-11
0.000233741
6.80925e-11
0.000233741
5.48318e-11
0.000233741
4.56115e-11
0.000233741
4.2651e-11
0.000233741
4.39256e-11
0.000233741
4.48964e-11
0.000233741
4.20877e-11
0.000233741
3.57694e-11
0.000233741
2.90262e-11
0.000233741
2.4164e-11
0.000233741
2.1512e-11
0.000233741
2.10315e-11
0.000233741
2.34579e-11
0.000233741
2.8944e-11
0.000233741
3.55499e-11
0.000233741
4.0242e-11
0.000233741
4.1105e-11
0.000233741
3.8573e-11
0.000233741
3.55939e-11
0.000233741
3.46609e-11
0.000233741
3.53325e-11
0.000233741
3.40354e-11
0.000233741
2.90696e-11
0.000233741
2.24288e-11
0.000233741
1.78618e-11
0.000233741
1.77257e-11
0.000233741
2.05188e-11
0.000233741
2.31024e-11
0.000233741
2.38643e-11
0.000233741
2.39753e-11
0.000233741
2.50626e-11
0.000233741
2.72829e-11
0.000233741
2.86661e-11
0.000233741
2.73137e-11
0.000233741
2.4093e-11
0.000233741
2.16722e-11
0.000233741
2.10301e-11
0.000233741
1.9881e-11
0.000233741
1.47221e-11
0.000233741
4.50335e-12
0.000233741
-7.42764e-12
0.000233741
-1.61607e-11
0.000233741
-1.92814e-11
0.000233741
-1.92853e-11
0.000233741
-2.03644e-11
0.000233741
-2.36474e-11
0.000233741
-2.65645e-11
0.000233741
-2.60187e-11
0.000233741
-2.21706e-11
0.000233741
-1.8316e-11
0.000233741
-1.74302e-11
0.000233741
-1.90344e-11
0.000233741
-1.94635e-11
0.000233741
-1.5881e-11
0.000233741
-9.86843e-12
0.000233741
-5.85385e-12
0.000233741
-6.43685e-12
0.000233741
-9.64662e-12
0.000233741
-1.13351e-11
0.000233741
-9.57472e-12
0.000233741
-6.77764e-12
0.000233741
-7.02591e-12
0.000233741
-1.12518e-11
0.000233741
-1.59396e-11
0.000233741
-1.63855e-11
0.000233741
-1.2142e-11
0.000233741
-7.01061e-12
0.000233741
-4.83442e-12
0.000233741
-5.68147e-12
0.000233741
-6.18279e-12
0.000233741
-3.24162e-12
0.000233741
2.12116e-12
0.000233741
6.15767e-12
0.000233741
6.24672e-12
0.000233741
3.97875e-12
0.000233741
3.32882e-12
0.000233741
6.1251e-12
0.000233741
1.00742e-11
0.000233741
1.12789e-11
0.000233741
8.50118e-12
0.000233741
4.80339e-12
0.000233741
4.04714e-12
0.000233741
7.05167e-12
0.000233741
1.0853e-11
0.000233741
1.1888e-11
0.000233741
9.66319e-12
0.000233741
7.37677e-12
0.000233741
8.37534e-12
0.000233741
1.24031e-11
0.000233741
1.60546e-11
0.000233741
1.65122e-11
0.000233741
1.42334e-11
0.000233741
1.22129e-11
0.000233741
1.28267e-11
0.000233741
1.43012e-11
0.000233741
1.34465e-11
0.000233741
9.33757e-12
0.000233741
4.25121e-12
0.000233741
1.00212e-12
0.000233741
1.41424e-13
0.000233741
-3.85461e-13
0.000233741
-3.41859e-12
0.000233741
-9.19638e-12
0.000233741
-1.42616e-11
0.000233741
-1.56741e-11
0.000233741
-1.4546e-11
0.000233741
-1.3748e-11
0.000233741
-1.46386e-11
0.000233741
-1.63571e-11
0.000233741
-1.72356e-11
0.000233741
-1.61102e-11
0.000233741
-1.37869e-11
0.000233741
-1.19761e-11
0.000233741
-1.14225e-11
0.000233741
-1.15398e-11
0.000233741
-1.10175e-11
0.000233741
-1.06358e-11
0.000233741
-1.06498e-11
0.000233741
-1.14645e-11
0.000233741
-1.32234e-11
0.000233741
-1.61054e-11
0.000233741
-1.94921e-11
0.000233741
-2.07748e-11
0.000233741
-2.20048e-11
0.000233741
-2.40901e-11
0.000233741
-2.87749e-11
0.000233741
-3.36302e-11
-3.53262e-11
0.000237946
1.45346e-10
0.000237946
1.49056e-10
0.000237946
1.90302e-10
0.000237946
2.34074e-10
0.000237946
2.66937e-10
0.000237946
3.10073e-10
0.000237946
3.43776e-10
0.000237946
3.525e-10
0.000237946
3.42554e-10
0.000237945
3.33058e-10
0.000237945
3.20494e-10
0.000237945
3.02465e-10
0.000237945
2.79466e-10
0.000237945
2.51182e-10
0.000237945
2.17313e-10
0.000237945
1.82862e-10
0.000237945
1.54425e-10
0.000237945
1.34365e-10
0.000237945
1.21604e-10
0.000237945
1.13065e-10
0.000237945
1.04375e-10
0.000237945
9.26802e-11
0.000237945
7.88395e-11
0.000237945
6.68152e-11
0.000237945
6.02776e-11
0.000237945
5.92237e-11
0.000237945
6.02377e-11
0.000237945
5.91416e-11
0.000237945
5.36352e-11
0.000237945
4.46838e-11
0.000237945
3.58569e-11
0.000237945
3.00885e-11
0.000237945
2.75952e-11
0.000237945
2.70362e-11
0.000237945
2.79455e-11
0.000237945
3.09962e-11
0.000237945
3.59427e-11
0.000237945
4.09099e-11
0.000237945
4.3559e-11
0.000237945
4.27193e-11
0.000237945
3.97318e-11
0.000237945
3.70506e-11
0.000237945
3.61384e-11
0.000237945
3.56815e-11
0.000237945
3.31871e-11
0.000237945
2.79151e-11
0.000237945
2.22498e-11
0.000237945
1.97949e-11
0.000237945
2.17668e-11
0.000237945
2.58173e-11
0.000237945
2.8069e-11
0.000237945
2.65232e-11
0.000237945
2.27572e-11
0.000237945
2.02923e-11
0.000237945
2.06918e-11
0.000237945
2.20644e-11
0.000237945
2.12875e-11
0.000237945
1.72652e-11
0.000237945
1.18143e-11
0.000237945
7.33294e-12
0.000237945
4.05695e-12
0.000237945
-1.52998e-13
0.000237945
-6.98202e-12
0.000237945
-1.55492e-11
0.000237945
-2.23388e-11
0.000237945
-2.47113e-11
0.000237945
-2.41789e-11
0.000237945
-2.4355e-11
0.000237945
-2.68967e-11
0.000237945
-3.00595e-11
0.000237945
-3.02792e-11
0.000237945
-2.60114e-11
0.000237945
-1.95226e-11
0.000237945
-1.46434e-11
0.000237945
-1.29265e-11
0.000237945
-1.22659e-11
0.000237945
-9.67902e-12
0.000237945
-4.77004e-12
0.000237945
-4.48893e-13
0.000237945
9.37825e-14
0.000237945
-2.82034e-12
0.000237945
-5.85845e-12
0.000237945
-6.37186e-12
0.000237945
-4.72716e-12
0.000237945
-4.24195e-12
0.000237945
-6.82425e-12
0.000237945
-1.03481e-11
0.000237945
-1.12717e-11
0.000237945
-8.00414e-12
0.000237945
-2.87356e-12
0.000237945
2.24806e-13
0.000237945
-3.32343e-13
0.000237945
-2.04987e-12
0.000237945
-1.36788e-12
0.000237945
2.48156e-12
0.000237945
6.8909e-12
0.000237945
8.60289e-12
0.000237945
6.98469e-12
0.000237945
4.67517e-12
0.000237945
4.29474e-12
0.000237945
5.6433e-12
0.000237945
6.09675e-12
0.000237945
3.77158e-12
0.000237945
5.65659e-14
0.000237945
-1.89377e-12
0.000237945
-4.14235e-13
0.000237945
2.97724e-12
0.000237945
5.15286e-12
0.000237945
4.79738e-12
0.000237945
3.71884e-12
0.000237945
4.61589e-12
0.000237945
8.02791e-12
0.000237945
1.1572e-11
0.000237945
1.25049e-11
0.000237945
1.05812e-11
0.000237945
8.41577e-12
0.000237945
8.4996e-12
0.000237945
1.03501e-11
0.000237945
1.11834e-11
0.000237945
9.18729e-12
0.000237945
5.04639e-12
0.000237945
8.44155e-13
0.000237945
-1.62869e-12
0.000237945
-2.77007e-12
0.000237945
-4.97981e-12
0.000237945
-9.08652e-12
0.000237945
-1.2706e-11
0.000237945
-1.36858e-11
0.000237945
-1.24328e-11
0.000237945
-1.09514e-11
0.000237945
-1.09339e-11
0.000237945
-1.22558e-11
0.000237945
-1.29225e-11
0.000237945
-1.1802e-11
0.000237945
-9.73441e-12
0.000237945
-8.59795e-12
0.000237945
-9.91197e-12
0.000237945
-1.23751e-11
0.000237945
-1.46161e-11
0.000237945
-1.53948e-11
0.000237945
-1.44682e-11
0.000237945
-1.34756e-11
0.000237945
-1.17827e-11
0.000237945
-1.33973e-11
0.000237945
-1.47201e-11
0.000237945
-1.74006e-11
0.000237945
-1.83672e-11
0.000237945
-1.9925e-11
0.000237945
-1.98803e-11
-2.07527e-11
0.000233743
1.52289e-10
0.000233743
1.62116e-10
0.000233743
1.92105e-10
0.000233743
2.24518e-10