/*--------------------------------*- C++ -*----------------------------------*\
| =========                 |                                                 |
| \\      /  F ield         | OpenFOAM: The Open Source CFD Toolbox           |
|  \\    /   O peration     | Version:  2406                                  |
|   \\  /    A nd           | Website:  www.openfoam.com                      |
|    \\/     M anipulation  |                                                 |
\*---------------------------------------------------------------------------*/
FoamFile
{
    version     2.0;
    format      ascii;
    arch        "LSB;label=32;scalar=64";
    class       volVectorField;
    location    "0.5";
    object      U;
}
// * * * * * * * * * * * * * * * * * * * * * * * * * * * * * * * * * * * * * //

dimensions      [0 1 -1 0 0 0 0];

internalField   nonuniform List<vector> 
2250
(
(0.474647 -3.59264e-08 0)
(0.474647 6.99156e-09 0)
(0.474647 -4.5664e-08 0)
(0.474648 -3.13057e-07 0)
(0.474648 -4.25259e-07 0)
(0.474649 -3.59837e-07 0)
(0.474649 -2.70095e-07 0)
(0.47465 -5.59623e-08 0)
(0.47465 2.15742e-08 0)
(0.474651 1.00292e-07 0)
(0.474651 1.35029e-07 0)
(0.474651 1.82063e-09 0)
(0.474651 -9.6006e-08 0)
(0.474651 -8.50895e-09 0)
(0.474651 1.62644e-07 0)
(0.47465 2.66299e-07 0)
(0.47465 2.49468e-07 0)
(0.47465 1.40946e-07 0)
(0.474649 1.24444e-08 0)
(0.474649 -6.85332e-08 0)
(0.474649 -8.10536e-08 0)
(0.474649 -5.3081e-08 0)
(0.474649 -3.57139e-08 0)
(0.47465 -5.23459e-08 0)
(0.47465 -7.83925e-08 0)
(0.47465 -8.80482e-08 0)
(0.47465 -8.94444e-08 0)
(0.474651 -9.97405e-08 0)
(0.474651 -1.09407e-07 0)
(0.474651 -9.17711e-08 0)
(0.474651 -4.14704e-08 0)
(0.474651 1.6134e-08 0)
(0.474651 5.55128e-08 0)
(0.474651 6.6586e-08 0)
(0.474651 5.869e-08 0)
(0.474651 5.21295e-08 0)
(0.474651 6.10968e-08 0)
(0.474651 8.31434e-08 0)
(0.474651 1.03245e-07 0)
(0.474651 1.0364e-07 0)
(0.474651 7.44058e-08 0)
(0.474651 1.70882e-08 0)
(0.474651 -4.51176e-08 0)
(0.474651 -7.58696e-08 0)
(0.474651 -5.55505e-08 0)
(0.474652 -2.42735e-09 0)
(0.474652 4.0459e-08 0)
(0.474652 4.22112e-08 0)
(0.474652 1.24204e-08 0)
(0.474652 -1.02112e-08 0)
(0.474652 2.84574e-09 0)
(0.474652 4.22233e-08 0)
(0.474652 7.08595e-08 0)
(0.474652 6.01308e-08 0)
(0.474652 2.76753e-08 0)
(0.474652 1.44235e-08 0)
(0.474652 3.6594e-08 0)
(0.474652 6.3673e-08 0)
(0.474651 5.03738e-08 0)
(0.474651 -9.99779e-09 0)
(0.474651 -7.5425e-08 0)
(0.474651 -9.45655e-08 0)
(0.474651 -5.95461e-08 0)
(0.474651 -1.46064e-08 0)
(0.474651 -8.18127e-09 0)
(0.474652 -4.1815e-08 0)
(0.474652 -6.42644e-08 0)
(0.474651 -3.27853e-08 0)
(0.474651 3.6028e-08 0)
(0.474651 7.82105e-08 0)
(0.474651 5.43324e-08 0)
(0.474651 -1.38651e-08 0)
(0.474651 -6.00236e-08 0)
(0.474651 -4.30657e-08 0)
(0.474651 8.38698e-09 0)
(0.474651 2.93659e-08 0)
(0.474651 -6.02137e-09 0)
(0.474651 -6.04849e-08 0)
(0.474651 -7.26629e-08 0)
(0.474651 -2.74731e-08 0)
(0.474651 2.51167e-08 0)
(0.474651 2.64855e-08 0)
(0.474652 -2.67355e-08 0)
(0.474652 -7.50946e-08 0)
(0.474652 -5.87001e-08 0)
(0.474651 1.49816e-08 0)
(0.474651 7.58761e-08 0)
(0.474651 6.97986e-08 0)
(0.474651 1.46338e-08 0)
(0.474651 -2.2315e-08 0)
(0.474651 4.54637e-09 0)
(0.474651 6.77207e-08 0)
(0.474651 9.82179e-08 0)
(0.474651 6.288e-08 0)
(0.474651 2.41878e-09 0)
(0.47465 -1.95119e-08 0)
(0.47465 2.41625e-08 0)
(0.47465 8.7804e-08 0)
(0.47465 1.04183e-07 0)
(0.47465 6.02641e-08 0)
(0.47465 8.64564e-09 0)
(0.47465 9.1949e-09 0)
(0.474649 6.56798e-08 0)
(0.474649 1.20238e-07 0)
(0.474649 1.1804e-07 0)
(0.474649 6.4733e-08 0)
(0.474649 1.83028e-08 0)
(0.474649 2.43191e-08 0)
(0.474649 6.49417e-08 0)
(0.474648 7.95327e-08 0)
(0.474648 3.61427e-08 0)
(0.474648 -3.44571e-08 0)
(0.474648 -7.08298e-08 0)
(0.474648 -4.77218e-08 0)
(0.474648 -1.38255e-09 0)
(0.474649 6.38914e-09 0)
(0.474649 -4.18302e-08 0)
(0.474649 -1.00788e-07 0)
(0.474649 -1.13842e-07 0)
(0.474649 -7.61247e-08 0)
(0.474649 -3.12896e-08 0)
(0.47465 -2.77715e-08 0)
(0.47465 -6.75541e-08 0)
(0.47465 -1.0226e-07 0)
(0.47465 -8.91451e-08 0)
(0.47465 -4.11117e-08 0)
(0.47465 -1.16342e-08 0)
(0.474651 -3.1591e-08 0)
(0.474651 -7.87077e-08 0)
(0.474651 -1.02565e-07 0)
(0.474651 -8.05293e-08 0)
(0.474651 -3.84283e-08 0)
(0.474651 -1.88535e-08 0)
(0.474652 -3.64626e-08 0)
(0.474652 -6.58055e-08 0)
(0.474652 -6.78255e-08 0)
(0.474652 -3.45768e-08 0)
(0.474652 9.71574e-10 0)
(0.474652 5.74287e-09 0)
(0.474652 -1.86064e-08 0)
(0.474652 -4.18099e-08 0)
(0.474652 -4.48207e-08 0)
(0.474652 -2.77328e-08 0)
(0.474652 -1.14001e-08 0)
(0.474652 -1.08694e-08 0)
(0.474653 -1.82867e-08 0)
(0.474653 -3.1932e-08 0)
(0.474653 -3.49162e-08 0)
(0.474653 -1.56702e-08 0)
(0.474653 -9.7267e-09 0)
(1.29665 -1.49704e-07 0)
(1.29665 -2.60242e-07 0)
(1.29665 -1.81618e-07 0)
(1.29665 -4.78924e-07 0)
(1.29665 -7.29898e-07 0)
(1.29665 -6.67435e-07 0)
(1.29665 -7.20103e-07 0)
(1.29665 -4.31728e-07 0)
(1.29665 -1.86306e-07 0)
(1.29665 -1.1136e-07 0)
(1.29665 -6.23844e-08 0)
(1.29665 -1.52931e-07 0)
(1.29665 -1.87435e-07 0)
(1.29665 1.71198e-08 0)
(1.29665 3.35759e-07 0)
(1.29665 4.954e-07 0)
(1.29665 4.06506e-07 0)
(1.29665 1.84914e-07 0)
(1.29665 -8.79393e-09 0)
(1.29665 -9.46176e-08 0)
(1.29665 -1.19479e-07 0)
(1.29665 -1.61924e-07 0)
(1.29665 -2.38808e-07 0)
(1.29665 -3.11145e-07 0)
(1.29665 -3.31988e-07 0)
(1.29665 -3.13301e-07 0)
(1.29665 -3.16175e-07 0)
(1.29665 -3.61966e-07 0)
(1.29665 -3.8029e-07 0)
(1.29665 -2.88471e-07 0)
(1.29665 -1.00649e-07 0)
(1.29665 7.86299e-08 0)
(1.29665 1.61292e-07 0)
(1.29665 1.53707e-07 0)
(1.29665 1.25911e-07 0)
(1.29665 1.34859e-07 0)
(1.29665 1.7991e-07 0)
(1.29665 2.17356e-07 0)
(1.29665 2.08603e-07 0)
(1.29665 1.553e-07 0)
(1.29665 8.68194e-08 0)
(1.29665 1.87624e-08 0)
(1.29665 -4.97367e-08 0)
(1.29665 -1.00803e-07 0)
(1.29665 -9.80601e-08 0)
(1.29665 -2.83023e-08 0)
(1.29665 7.21802e-08 0)
(1.29665 1.40726e-07 0)
(1.29666 1.42191e-07 0)
(1.29666 1.02761e-07 0)
(1.29666 8.97021e-08 0)
(1.29666 1.43265e-07 0)
(1.29666 2.3073e-07 0)
(1.29665 2.74241e-07 0)
(1.29665 2.36838e-07 0)
(1.29665 1.57786e-07 0)
(1.29665 1.03796e-07 0)
(1.29665 9.21749e-08 0)
(1.29665 7.15048e-08 0)
(1.29665 -1.20992e-08 0)
(1.29665 -1.44137e-07 0)
(1.29665 -2.43473e-07 0)
(1.29665 -2.38498e-07 0)
(1.29665 -1.42503e-07 0)
(1.29665 -4.43556e-08 0)
(1.29665 -2.1353e-08 0)
(1.29665 -5.55102e-08 0)
(1.29665 -6.45658e-08 0)
(1.29665 -5.04905e-11 0)
(1.29665 8.92539e-08 0)
(1.29665 1.11688e-07 0)
(1.29665 2.70235e-08 0)
(1.29665 -9.87627e-08 0)
(1.29665 -1.57553e-07 0)
(1.29665 -1.13282e-07 0)
(1.29665 -3.78682e-08 0)
(1.29665 -3.24998e-08 0)
(1.29665 -1.19558e-07 0)
(1.29665 -2.1816e-07 0)
(1.29665 -2.34577e-07 0)
(1.29665 -1.63852e-07 0)
(1.29665 -9.10295e-08 0)
(1.29665 -9.45565e-08 0)
(1.29665 -1.56384e-07 0)
(1.29665 -1.77668e-07 0)
(1.29665 -9.10831e-08 0)
(1.29665 5.69198e-08 0)
(1.29665 1.5528e-07 0)
(1.29665 1.43826e-07 0)
(1.29665 7.2561e-08 0)
(1.29665 4.91991e-08 0)
(1.29665 1.19127e-07 0)
(1.29665 2.18623e-07 0)
(1.29665 2.45148e-07 0)
(1.29665 1.74243e-07 0)
(1.29665 8.087e-08 0)
(1.29665 6.49864e-08 0)
(1.29665 1.39754e-07 0)
(1.29665 2.18006e-07 0)
(1.29665 2.12047e-07 0)
(1.29665 1.29206e-07 0)
(1.29665 6.35005e-08 0)
(1.29665 9.38853e-08 0)
(1.29665 1.96497e-07 0)
(1.29665 2.70263e-07 0)
(1.29665 2.47497e-07 0)
(1.29665 1.58013e-07 0)
(1.29665 9.49972e-08 0)
(1.29665 1.12585e-07 0)
(1.29665 1.66405e-07 0)
(1.29665 1.69204e-07 0)
(1.29665 9.03415e-08 0)
(1.29665 -1.01548e-08 0)
(1.29665 -5.13391e-08 0)
(1.29665 -1.77196e-08 0)
(1.29665 2.02254e-08 0)
(1.29665 -1.54646e-08 0)
(1.29665 -1.19369e-07 0)
(1.29665 -2.08429e-07 0)
(1.29665 -2.13696e-07 0)
(1.29665 -1.48697e-07 0)
(1.29665 -9.34692e-08 0)
(1.29665 -1.11423e-07 0)
(1.29665 -1.80485e-07 0)
(1.29665 -2.16128e-07 0)
(1.29665 -1.73527e-07 0)
(1.29665 -1.0091e-07 0)
(1.29665 -8.23033e-08 0)
(1.29665 -1.40391e-07 0)
(1.29665 -2.14408e-07 0)
(1.29665 -2.29119e-07 0)
(1.29665 -1.69435e-07 0)
(1.29665 -8.96777e-08 0)
(1.29665 -5.80377e-08 0)
(1.29665 -8.78864e-08 0)
(1.29665 -1.19853e-07 0)
(1.29665 -9.41878e-08 0)
(1.29665 -2.91863e-08 0)
(1.29666 9.28316e-09 0)
(1.29666 -1.41796e-08 0)
(1.29666 -6.63648e-08 0)
(1.29666 -1.0237e-07 0)
(1.29666 -9.10473e-08 0)
(1.29666 -5.17587e-08 0)
(1.29666 -3.56518e-08 0)
(1.29666 -4.92203e-08 0)
(1.29666 -1.0524e-07 0)
(1.29666 -1.40483e-07 0)
(1.29666 -1.46698e-07 0)
(1.29666 -1.55048e-07 0)
(1.99165 4.61739e-07 0)
(1.99165 -1.47955e-08 0)
(1.99165 1.32273e-07 0)
(1.99165 2.80834e-07 0)
(1.99164 -1.10458e-07 0)
(1.99164 -3.13605e-07 0)
(1.99164 -6.18096e-07 0)
(1.99164 -6.93907e-07 0)
(1.99164 -4.16181e-07 0)
(1.99164 -1.69873e-07 0)
(1.99164 -3.30696e-08 0)
(1.99164 2.66357e-08 0)
(1.99164 1.39197e-07 0)
(1.99164 3.28053e-07 0)
(1.99164 5.05651e-07 0)
(1.99164 5.54815e-07 0)
(1.99164 4.59621e-07 0)
(1.99164 3.42299e-07 0)
(1.99164 2.84058e-07 0)
(1.99164 2.4532e-07 0)
(1.99164 1.26911e-07 0)
(1.99164 -8.76296e-08 0)
(1.99164 -2.95449e-07 0)
(1.99164 -4.02862e-07 0)
(1.99164 -4.1229e-07 0)
(1.99164 -4.0191e-07 0)
(1.99164 -4.30347e-07 0)
(1.99164 -4.70552e-07 0)
(1.99164 -4.36738e-07 0)
(1.99164 -2.73579e-07 0)
(1.99164 -2.85806e-08 0)
(1.99164 1.80842e-07 0)
(1.99164 2.66625e-07 0)
(1.99164 2.4778e-07 0)
(1.99164 2.12677e-07 0)
(1.99164 2.22703e-07 0)
(1.99164 2.66068e-07 0)
(1.99164 2.89134e-07 0)
(1.99164 2.53407e-07 0)
(1.99164 1.72249e-07 0)
(1.99164 9.73877e-08 0)
(1.99164 6.60918e-08 0)
(1.99164 6.50121e-08 0)
(1.99164 5.60109e-08 0)
(1.99164 3.46874e-08 0)
(1.99164 4.09563e-08 0)
(1.99164 1.10685e-07 0)
(1.99164 2.26876e-07 0)
(1.99164 3.22979e-07 0)
(1.99164 3.44896e-07 0)
(1.99164 3.10043e-07 0)
(1.99164 2.91305e-07 0)
(1.99164 3.4371e-07 0)
(1.99164 4.4024e-07 0)
(1.99164 4.88234e-07 0)
(1.99164 4.20089e-07 0)
(1.99164 2.62479e-07 0)
(1.99164 1.09624e-07 0)
(1.99164 3.17184e-08 0)
(1.99164 1.16633e-08 0)
(1.99164 -1.87704e-08 0)
(1.99164 -9.22159e-08 0)
(1.99164 -1.65721e-07 0)
(1.99164 -1.65275e-07 0)
(1.99164 -7.50055e-08 0)
(1.99164 3.14496e-08 0)
(1.99164 5.8908e-08 0)
(1.99164 -1.08433e-08 0)
(1.99164 -9.87378e-08 0)
(1.99164 -1.17269e-07 0)
(1.99164 -6.47177e-08 0)
(1.99164 -2.42339e-08 0)
(1.99164 -7.12988e-08 0)
(1.99164 -1.88553e-07 0)
(1.99164 -2.80235e-07 0)
(1.99164 -2.77273e-07 0)
(1.99164 -2.17037e-07 0)
(1.99164 -2.01466e-07 0)
(1.99164 -2.84456e-07 0)
(1.99164 -4.10133e-07 0)
(1.99164 -4.64075e-07 0)
(1.99164 -3.94183e-07 0)
(1.99164 -2.63575e-07 0)
(1.99164 -1.80314e-07 0)
(1.99164 -1.81317e-07 0)
(1.99164 -1.94774e-07 0)
(1.99164 -1.26518e-07 0)
(1.99164 2.89002e-08 0)
(1.99164 1.76806e-07 0)
(1.99164 2.21412e-07 0)
(1.99164 1.6674e-07 0)
(1.99164 1.14247e-07 0)
(1.99164 1.51107e-07 0)
(1.99164 2.55193e-07 0)
(1.99164 3.20539e-07 0)
(1.99164 2.75504e-07 0)
(1.99164 1.61738e-07 0)
(1.99164 9.07869e-08 0)
(1.99164 1.25308e-07 0)
(1.99164 2.1664e-07 0)
(1.99164 2.61722e-07 0)
(1.99164 2.19994e-07 0)
(1.99164 1.54335e-07 0)
(1.99164 1.58287e-07 0)
(1.99164 2.50953e-07 0)
(1.99164 3.5259e-07 0)
(1.99164 3.67522e-07 0)
(1.99164 2.8669e-07 0)
(1.99164 1.96423e-07 0)
(1.99164 1.8364e-07 0)
(1.99164 2.40233e-07 0)
(1.99164 2.75643e-07 0)
(1.99164 2.17078e-07 0)
(1.99164 8.76153e-08 0)
(1.99164 -2.03628e-08 0)
(1.99164 -4.61381e-08 0)
(1.99164 -2.3497e-08 0)
(1.99164 -3.64389e-08 0)
(1.99164 -1.20864e-07 0)
(1.99164 -2.23116e-07 0)
(1.99164 -2.63304e-07 0)
(1.99164 -2.1926e-07 0)
(1.99164 -1.51332e-07 0)
(1.99164 -1.40738e-07 0)
(1.99164 -1.98842e-07 0)
(1.99164 -2.55179e-07 0)
(1.99164 -2.44848e-07 0)
(1.99164 -1.88049e-07 0)
(1.99164 -1.57694e-07 0)
(1.99164 -1.91073e-07 0)
(1.99164 -2.54617e-07 0)
(1.99164 -2.83583e-07 0)
(1.99164 -2.42495e-07 0)
(1.99164 -1.6226e-07 0)
(1.99164 -1.15583e-07 0)
(1.99164 -1.35747e-07 0)
(1.99164 -1.73232e-07 0)
(1.99164 -1.67935e-07 0)
(1.99164 -1.24117e-07 0)
(1.99164 -9.36951e-08 0)
(1.99164 -1.03025e-07 0)
(1.99164 -1.36375e-07 0)
(1.99164 -1.60586e-07 0)
(1.99164 -1.5621e-07 0)
(1.99164 -1.52411e-07 0)
(1.99164 -1.64679e-07 0)
(1.99164 -2.16293e-07 0)
(1.99164 -2.9921e-07 0)
(1.99164 -3.94129e-07 0)
(1.99164 -4.68209e-07 0)
(2.55989 1.66803e-06 0)
(2.55989 1.48128e-06 0)
(2.55989 1.49791e-06 0)
(2.55988 1.56624e-06 0)
(2.55988 1.11735e-06 0)
(2.55988 5.45977e-07 0)
(2.55988 1.4348e-07 0)
(2.55988 -5.16631e-08 0)
(2.55988 1.12167e-07 0)
(2.55988 4.03594e-07 0)
(2.55988 6.31124e-07 0)
(2.55988 7.03094e-07 0)
(2.55988 7.1984e-07 0)
(2.55988 7.49186e-07 0)
(2.55987 7.94317e-07 0)
(2.55987 8.40519e-07 0)
(2.55987 8.45197e-07 0)
(2.55987 8.07063e-07 0)
(2.55987 7.17527e-07 0)
(2.55987 5.65224e-07 0)
(2.55987 3.54365e-07 0)
(2.55987 1.24414e-07 0)
(2.55987 -6.30179e-08 0)
(2.55987 -1.78007e-07 0)
(2.55987 -2.43163e-07 0)
(2.55987 -2.93553e-07 0)
(2.55987 -3.22953e-07 0)
(2.55987 -2.95387e-07 0)
(2.55987 -1.95359e-07 0)
(2.55987 -4.54138e-08 0)
(2.55987 1.08916e-07 0)
(2.55987 2.29047e-07 0)
(2.55987 2.95812e-07 0)
(2.55987 3.09929e-07 0)
(2.55987 2.92348e-07 0)
(2.55987 2.72834e-07 0)
(2.55987 2.70654e-07 0)
(2.55987 2.85786e-07 0)
(2.55987 2.98504e-07 0)
(2.55987 2.82343e-07 0)
(2.55987 2.3304e-07 0)
(2.55987 1.76828e-07 0)
(2.55987 1.51277e-07 0)
(2.55987 1.64465e-07 0)
(2.55987 1.91804e-07 0)
(2.55987 2.1032e-07 0)
(2.55987 2.253e-07 0)
(2.55987 2.58427e-07 0)
(2.55987 3.18867e-07 0)
(2.55987 3.87799e-07 0)
(2.55987 4.29822e-07 0)
(2.55987 4.35532e-07 0)
(2.55987 4.36103e-07 0)
(2.55987 4.66947e-07 0)
(2.55987 5.14504e-07 0)
(2.55987 5.18742e-07 0)
(2.55987 4.31417e-07 0)
(2.55987 2.74334e-07 0)
(2.55987 1.33019e-07 0)
(2.55987 7.91375e-08 0)
(2.55987 1.03999e-07 0)
(2.55987 1.32946e-07 0)
(2.55987 1.00146e-07 0)
(2.55987 1.58269e-08 0)
(2.55987 -5.05526e-08 0)
(2.55987 -5.11699e-08 0)
(2.55987 -1.6865e-08 0)
(2.55987 -1.91421e-08 0)
(2.55987 -9.18424e-08 0)
(2.55987 -1.86589e-07 0)
(2.55987 -2.22446e-07 0)
(2.55987 -1.77105e-07 0)
(2.55987 -1.17274e-07 0)
(2.55987 -1.29567e-07 0)
(2.55987 -2.30045e-07 0)
(2.55987 -3.47312e-07 0)
(2.55987 -3.99077e-07 0)
(2.55987 -3.76574e-07 0)
(2.55987 -3.50184e-07 0)
(2.55987 -3.85584e-07 0)
(2.55987 -4.64403e-07 0)
(2.55987 -4.99626e-07 0)
(2.55987 -4.30457e-07 0)
(2.55987 -2.91715e-07 0)
(2.55987 -1.79465e-07 0)
(2.55987 -1.50874e-07 0)
(2.55987 -1.65323e-07 0)
(2.55987 -1.33527e-07 0)
(2.55987 -2.07026e-08 0)
(2.55987 1.14336e-07 0)
(2.55987 1.80737e-07 0)
(2.55987 1.55018e-07 0)
(2.55987 1.01527e-07 0)
(2.55987 1.05924e-07 0)
(2.55987 1.78072e-07 0)
(2.55987 2.40777e-07 0)
(2.55987 2.19999e-07 0)
(2.55987 1.29652e-07 0)
(2.55987 5.99781e-08 0)
(2.55987 8.43043e-08 0)
(2.55987 1.82287e-07 0)
(2.55987 2.64843e-07 0)
(2.55987 2.69959e-07 0)
(2.55987 2.2557e-07 0)
(2.55987 2.15204e-07 0)
(2.55987 2.79844e-07 0)
(2.55987 3.74371e-07 0)
(2.55987 4.15879e-07 0)
(2.55987 3.71648e-07 0)
(2.55987 2.92199e-07 0)
(2.55987 2.52763e-07 0)
(2.55987 2.67544e-07 0)
(2.55987 2.77532e-07 0)
(2.55987 2.19934e-07 0)
(2.55987 1.0017e-07 0)
(2.55987 -1.16286e-08 0)
(2.55987 -5.40085e-08 0)
(2.55987 -3.91908e-08 0)
(2.55987 -3.6e-08 0)
(2.55987 -9.26056e-08 0)
(2.55987 -1.83741e-07 0)
(2.55987 -2.40189e-07 0)
(2.55987 -2.24103e-07 0)
(2.55987 -1.6832e-07 0)
(2.55987 -1.44239e-07 0)
(2.55987 -1.82114e-07 0)
(2.55987 -2.3939e-07 0)
(2.55987 -2.56025e-07 0)
(2.55987 -2.27283e-07 0)
(2.55987 -1.99995e-07 0)
(2.55987 -2.14077e-07 0)
(2.55987 -2.65647e-07 0)
(2.55987 -3.11041e-07 0)
(2.55987 -3.07407e-07 0)
(2.55987 -2.60132e-07 0)
(2.55987 -2.22577e-07 0)
(2.55987 -2.28519e-07 0)
(2.55987 -2.50675e-07 0)
(2.55987 -2.46378e-07 0)
(2.55987 -2.17147e-07 0)
(2.55987 -1.93324e-07 0)
(2.55987 -1.91557e-07 0)
(2.55987 -2.11643e-07 0)
(2.55987 -2.36717e-07 0)
(2.55987 -2.63781e-07 0)
(2.55987 -2.89186e-07 0)
(2.55987 -3.29608e-07 0)
(2.55987 -4.23844e-07 0)
(2.55987 -5.93606e-07 0)
(2.55987 -7.06499e-07 0)
(3.0016 1.97569e-06 0)
(3.0016 2.37871e-06 0)
(3.0016 2.37816e-06 0)
(3.0016 2.45077e-06 0)
(3.00159 2.3602e-06 0)
(3.00159 1.81013e-06 0)
(3.00159 1.39096e-06 0)
(3.00159 1.20745e-06 0)
(3.00159 1.28721e-06 0)
(3.00159 1.38774e-06 0)
(3.00159 1.44482e-06 0)
(3.00159 1.43934e-06 0)
(3.00159 1.38398e-06 0)
(3.00158 1.30575e-06 0)
(3.00158 1.23478e-06 0)
(3.00158 1.20227e-06 0)
(3.00158 1.1697e-06 0)
(3.00158 1.09679e-06 0)
(3.00158 9.45308e-07 0)
(3.00158 7.21927e-07 0)
(3.00158 4.89461e-07 0)
(3.00158 3.04931e-07 0)
(3.00158 1.7318e-07 0)
(3.00158 6.5034e-08 0)
(3.00158 -4.507e-08 0)
(3.00158 -1.45949e-07 0)
(3.00158 -1.90131e-07 0)
(3.00158 -1.47971e-07 0)
(3.00158 -4.3545e-08 0)
(3.00158 6.33991e-08 0)
(3.00158 1.32129e-07 0)
(3.00158 1.72954e-07 0)
(3.00158 2.21375e-07 0)
(3.00158 2.85014e-07 0)
(3.00158 3.37406e-07 0)
(3.00158 3.57071e-07 0)
(3.00158 3.54184e-07 0)
(3.00158 3.57509e-07 0)
(3.00158 3.79213e-07 0)
(3.00158 3.94886e-07 0)
(3.00158 3.67307e-07 0)
(3.00158 2.88888e-07 0)
(3.00158 2.00897e-07 0)
(3.00158 1.58665e-07 0)
(3.00158 1.76037e-07 0)
(3.00158 2.12175e-07 0)
(3.00158 2.18477e-07 0)
(3.00158 1.88876e-07 0)
(3.00158 1.6671e-07 0)
(3.00158 1.98617e-07 0)
(3.00158 2.81974e-07 0)
(3.00158 3.68621e-07 0)
(3.00158 4.11843e-07 0)
(3.00158 4.09447e-07 0)
(3.00158 3.96646e-07 0)
(3.00158 3.99761e-07 0)
(3.00158 4.01599e-07 0)
(3.00158 3.63454e-07 0)
(3.00158 2.77778e-07 0)
(3.00158 1.86832e-07 0)
(3.00158 1.39468e-07 0)
(3.00158 1.3621e-07 0)
(3.00158 1.25692e-07 0)
(3.00158 5.65043e-08 0)
(3.00158 -6.31833e-08 0)
(3.00158 -1.67365e-07 0)
(3.00158 -1.9746e-07 0)
(3.00158 -1.58722e-07 0)
(3.00158 -1.19135e-07 0)
(3.00158 -1.34367e-07 0)
(3.00158 -1.88362e-07 0)
(3.00158 -2.17454e-07 0)
(3.00158 -1.86991e-07 0)
(3.00158 -1.32799e-07 0)
(3.00158 -1.26291e-07 0)
(3.00158 -1.96463e-07 0)
(3.00158 -2.93858e-07 0)
(3.00158 -3.41706e-07 0)
(3.00158 -3.15651e-07 0)
(3.00158 -2.65745e-07 0)
(3.00158 -2.61518e-07 0)
(3.00158 -3.12706e-07 0)
(3.00158 -3.57803e-07 0)
(3.00158 -3.32067e-07 0)
(3.00158 -2.40308e-07 0)
(3.00158 -1.52696e-07 0)
(3.00158 -1.28782e-07 0)
(3.00158 -1.51864e-07 0)
(3.00158 -1.50614e-07 0)
(3.00158 -7.66048e-08 0)
(3.00158 4.13894e-08 0)
(3.00158 1.25578e-07 0)
(3.00158 1.29584e-07 0)
(3.00158 8.84141e-08 0)
(3.00158 7.53978e-08 0)
(3.00158 1.2188e-07 0)
(3.00158 1.84184e-07 0)
(3.00158 1.95939e-07 0)
(3.00158 1.47569e-07 0)
(3.00158 9.70973e-08 0)
(3.00158 1.08625e-07 0)
(3.00158 1.83236e-07 0)
(3.00158 2.56262e-07 0)
(3.00158 2.68176e-07 0)
(3.00158 2.26536e-07 0)
(3.00158 1.9464e-07 0)
(3.00158 2.22594e-07 0)
(3.00158 2.91658e-07 0)
(3.00158 3.34184e-07 0)
(3.00158 3.07515e-07 0)
(3.00158 2.37583e-07 0)
(3.00158 1.89012e-07 0)
(3.00158 1.94497e-07 0)
(3.00158 2.20816e-07 0)
(3.00158 2.09115e-07 0)
(3.00158 1.40111e-07 0)
(3.00158 5.68288e-08 0)
(3.00158 1.65347e-08 0)
(3.00158 2.6075e-08 0)
(3.00158 3.65045e-08 0)
(3.00158 1.86099e-10 0)
(3.00158 -7.84692e-08 0)
(3.00158 -1.48525e-07 0)
(3.00158 -1.65133e-07 0)
(3.00158 -1.39013e-07 0)
(3.00158 -1.2751e-07 0)
(3.00158 -1.69102e-07 0)
(3.00158 -2.36478e-07 0)
(3.00158 -2.7631e-07 0)
(3.00158 -2.72983e-07 0)
(3.00158 -2.5415e-07 0)
(3.00158 -2.56558e-07 0)
(3.00158 -2.92252e-07 0)
(3.00158 -3.33337e-07 0)
(3.00158 -3.33803e-07 0)
(3.00158 -2.87395e-07 0)
(3.00158 -2.36941e-07 0)
(3.00158 -2.17686e-07 0)
(3.00158 -2.21125e-07 0)
(3.00158 -2.19076e-07 0)
(3.00158 -2.0472e-07 0)
(3.00158 -1.86468e-07 0)
(3.00158 -1.93075e-07 0)
(3.00158 -2.26674e-07 0)
(3.00158 -2.6739e-07 0)
(3.00158 -3.13201e-07 0)
(3.00158 -3.58796e-07 0)
(3.00158 -4.45917e-07 0)
(3.00158 -6.33472e-07 0)
(3.00158 -7.4804e-07 0)
(3.31697 1.87175e-06 0)
(3.31697 2.35226e-06 0)
(3.31697 2.62077e-06 0)
(3.31697 2.91233e-06 0)
(3.31697 3.16263e-06 0)
(3.31697 2.95885e-06 0)
(3.31696 2.7839e-06 0)
(3.31696 2.68124e-06 0)
(3.31696 2.70633e-06 0)
(3.31696 2.66534e-06 0)
(3.31696 2.53805e-06 0)
(3.31696 2.39218e-06 0)
(3.31696 2.2236e-06 0)
(3.31695 2.04191e-06 0)
(3.31695 1.86276e-06 0)
(3.31695 1.6962e-06 0)
(3.31695 1.51214e-06 0)
(3.31695 1.31207e-06 0)
(3.31695 1.10928e-06 0)
(3.31695 9.15683e-07 0)
(3.31695 7.60377e-07 0)
(3.31695 6.48287e-07 0)
(3.31695 5.31727e-07 0)
(3.31695 3.68224e-07 0)
(3.31695 1.78985e-07 0)
(3.31695 3.83498e-08 0)
(3.31695 3.03825e-09 0)
(3.31695 6.13164e-08 0)
(3.31695 1.48622e-07 0)
(3.31695 2.02649e-07 0)
(3.31695 2.06524e-07 0)
(3.31695 1.91397e-07 0)
(3.31695 2.06704e-07 0)
(3.31695 2.72063e-07 0)
(3.31695 3.59653e-07 0)
(3.31695 4.27029e-07 0)
(3.31695 4.57945e-07 0)
(3.31695 4.65031e-07 0)
(3.31695 4.65298e-07 0)
(3.31695 4.59622e-07 0)
(3.31695 4.32207e-07 0)
(3.31695 3.70314e-07 0)
(3.31695 2.82272e-07 0)
(3.31695 2.02686e-07 0)
(3.31695 1.63864e-07 0)
(3.31695 1.61176e-07 0)
(3.31695 1.59656e-07 0)
(3.31695 1.35562e-07 0)
(3.31695 1.02015e-07 0)
(3.31695 9.7716e-08 0)
(3.31695 1.53217e-07 0)
(3.31695 2.52613e-07 0)
(3.31695 3.41019e-07 0)
(3.31695 3.7102e-07 0)
(3.31695 3.47627e-07 0)
(3.31695 3.19492e-07 0)
(3.31695 3.27088e-07 0)
(3.31695 3.58209e-07 0)
(3.31695 3.61543e-07 0)
(3.31695 3.02961e-07 0)
(3.31695 1.99503e-07 0)
(3.31695 9.82136e-08 0)
(3.31695 2.90906e-08 0)
(3.31695 -2.48805e-08 0)
(3.31695 -9.86594e-08 0)
(3.31695 -1.9428e-07 0)
(3.31695 -2.67856e-07 0)
(3.31695 -2.75812e-07 0)
(3.31695 -2.23691e-07 0)
(3.31695 -1.66151e-07 0)
(3.31695 -1.58777e-07 0)
(3.31695 -1.98977e-07 0)
(3.31695 -2.32196e-07 0)
(3.31695 -2.12733e-07 0)
(3.31695 -1.52967e-07 0)
(3.31695 -1.10585e-07 0)
(3.31695 -1.24461e-07 0)
(3.31695 -1.72202e-07 0)
(3.31695 -1.95691e-07 0)
(3.31695 -1.66595e-07 0)
(3.31695 -1.20505e-07 0)
(3.31695 -1.17607e-07 0)
(3.31695 -1.75861e-07 0)
(3.31695 -2.4735e-07 0)
(3.31695 -2.66859e-07 0)
(3.31695 -2.2173e-07 0)
(3.31695 -1.57604e-07 0)
(3.31695 -1.31547e-07 0)
(3.31695 -1.47215e-07 0)
(3.31695 -1.52837e-07 0)
(3.31695 -1.00934e-07 0)
(3.31695 -4.24806e-09 0)
(3.31695 7.70969e-08 0)
(3.31695 9.64934e-08 0)
(3.31695 6.92246e-08 0)
(3.31695 5.54242e-08 0)
(3.31695 9.41729e-08 0)
(3.31695 1.58762e-07 0)
(3.31695 1.90269e-07 0)
(3.31695 1.63917e-07 0)
(3.31695 1.15781e-07 0)
(3.31695 1.04508e-07 0)
(3.31695 1.46585e-07 0)
(3.31695 2.00037e-07 0)
(3.31695 2.12273e-07 0)
(3.31695 1.75624e-07 0)
(3.31695 1.3481e-07 0)
(3.31695 1.38546e-07 0)
(3.31695 1.84335e-07 0)
(3.31695 2.22805e-07 0)
(3.31695 2.1391e-07 0)
(3.31695 1.7305e-07 0)
(3.31695 1.50441e-07 0)
(3.31695 1.7634e-07 0)
(3.31695 2.28062e-07 0)
(3.31695 2.50549e-07 0)
(3.31695 2.12424e-07 0)
(3.31695 1.41347e-07 0)
(3.31695 9.12834e-08 0)
(3.31695 8.20736e-08 0)
(3.31695 8.38879e-08 0)
(3.31695 5.45969e-08 0)
(3.31695 -1.47248e-08 0)
(3.31695 -9.12275e-08 0)
(3.31695 -1.32968e-07 0)
(3.31695 -1.37874e-07 0)
(3.31695 -1.49344e-07 0)
(3.31695 -1.96707e-07 0)
(3.31695 -2.58352e-07 0)
(3.31695 -2.953e-07 0)
(3.31695 -2.94637e-07 0)
(3.31695 -2.73179e-07 0)
(3.31695 -2.61502e-07 0)
(3.31695 -2.75676e-07 0)
(3.31695 -2.9239e-07 0)
(3.31695 -2.77542e-07 0)
(3.31695 -2.28738e-07 0)
(3.31695 -1.78197e-07 0)
(3.31695 -1.59442e-07 0)
(3.31695 -1.65151e-07 0)
(3.31695 -1.73978e-07 0)
(3.31695 -1.7004e-07 0)
(3.31695 -1.8267e-07 0)
(3.31695 -2.18132e-07 0)
(3.31695 -2.58226e-07 0)
(3.31695 -3.0718e-07 0)
(3.31695 -3.46607e-07 0)
(3.31695 -4.2813e-07 0)
(3.31695 -5.8141e-07 0)
(3.31695 -6.65721e-07 0)
(3.50613 1.84819e-06 0)
(3.50613 2.1426e-06 0)
(3.50614 2.64233e-06 0)
(3.50614 3.16799e-06 0)
(3.50614 3.57402e-06 0)
(3.50613 3.78673e-06 0)
(3.50613 4.00591e-06 0)
(3.50613 4.06738e-06 0)
(3.50613 4.03344e-06 0)
(3.50613 3.87737e-06 0)
(3.50613 3.62282e-06 0)
(3.50613 3.39439e-06 0)
(3.50613 3.17154e-06 0)
(3.50613 2.90806e-06 0)
(3.50612 2.60171e-06 0)
(3.50612 2.27552e-06 0)
(3.50612 1.93024e-06 0)
(3.50612 1.61076e-06 0)
(3.50612 1.38436e-06 0)
(3.50612 1.25261e-06 0)
(3.50612 1.16253e-06 0)
(3.50612 1.05581e-06 0)
(3.50612 8.97769e-07 0)
(3.50612 7.02274e-07 0)
(3.50612 5.28404e-07 0)
(3.50612 4.37537e-07 0)
(3.50612 4.37662e-07 0)
(3.50612 4.74805e-07 0)
(3.50612 4.82757e-07 0)
(3.50612 4.39304e-07 0)
(3.50612 3.69028e-07 0)
(3.50612 3.06239e-07 0)
(3.50612 2.75553e-07 0)
(3.50612 2.89721e-07 0)
(3.50612 3.46255e-07 0)
(3.50612 4.24728e-07 0)
(3.50612 4.98232e-07 0)
(3.50612 5.44412e-07 0)
(3.50612 5.51582e-07 0)
(3.50612 5.27136e-07 0)
(3.50612 4.93502e-07 0)
(3.50612 4.68934e-07 0)
(3.50612 4.43603e-07 0)
(3.50612 3.9708e-07 0)
(3.50612 3.2886e-07 0)
(3.50612 2.6215e-07 0)
(3.50612 2.21002e-07 0)
(3.50612 2.10305e-07 0)
(3.50612 2.19146e-07 0)
(3.50612 2.36757e-07 0)
(3.50612 2.65147e-07 0)
(3.50612 3.10467e-07 0)
(3.50612 3.66962e-07 0)
(3.50612 4.08426e-07 0)
(3.50612 4.10564e-07 0)
(3.50612 3.78664e-07 0)
(3.50612 3.47707e-07 0)
(3.50612 3.44527e-07 0)
(3.50612 3.53342e-07 0)
(3.50612 3.26733e-07 0)
(3.50612 2.32944e-07 0)
(3.50612 8.85243e-08 0)
(3.50612 -5.26376e-08 0)
(3.50612 -1.46035e-07 0)
(3.50612 -1.93989e-07 0)
(3.50612 -2.33054e-07 0)
(3.50612 -2.85519e-07 0)
(3.50612 -3.35211e-07 0)
(3.50612 -3.46467e-07 0)
(3.50612 -3.11139e-07 0)
(3.50612 -2.62731e-07 0)
(3.50612 -2.44408e-07 0)
(3.50612 -2.62847e-07 0)
(3.50612 -2.8122e-07 0)
(3.50612 -2.57273e-07 0)
(3.50612 -1.91717e-07 0)
(3.50612 -1.30099e-07 0)
(3.50612 -1.13505e-07 0)
(3.50612 -1.3662e-07 0)
(3.50612 -1.55884e-07 0)
(3.50612 -1.39497e-07 0)
(3.50612 -1.04401e-07 0)
(3.50612 -9.679e-08 0)
(3.50612 -1.40663e-07 0)
(3.50612 -2.0674e-07 0)
(3.50612 -2.38762e-07 0)
(3.50612 -2.10769e-07 0)
(3.50612 -1.53498e-07 0)
(3.50612 -1.16211e-07 0)
(3.50612 -1.15243e-07 0)
(3.50612 -1.18749e-07 0)
(3.50612 -8.74526e-08 0)
(3.50612 -1.75802e-08 0)
(3.50612 5.02588e-08 0)
(3.50612 7.46615e-08 0)
(3.50612 5.90946e-08 0)
(3.50612 4.69373e-08 0)
(3.50612 7.43276e-08 0)
(3.50612 1.29091e-07 0)
(3.50612 1.63199e-07 0)
(3.50612 1.47584e-07 0)
(3.50612 1.03828e-07 0)
(3.50612 8.10594e-08 0)
(3.50612 1.04772e-07 0)
(3.50612 1.51551e-07 0)
(3.50612 1.76478e-07 0)
(3.50612 1.60387e-07 0)
(3.50612 1.30686e-07 0)
(3.50612 1.30487e-07 0)
(3.50612 1.68372e-07 0)
(3.50612 2.11932e-07 0)
(3.50612 2.26196e-07 0)
(3.50612 2.0988e-07 0)
(3.50612 1.94395e-07 0)
(3.50612 2.0628e-07 0)
(3.50612 2.35357e-07 0)
(3.50612 2.41425e-07 0)
(3.50612 1.97742e-07 0)
(3.50612 1.25212e-07 0)
(3.50612 6.72612e-08 0)
(3.50612 4.32723e-08 0)
(3.50612 3.51841e-08 0)
(3.50612 8.62178e-09 0)
(3.50612 -5.45587e-08 0)
(3.50612 -1.32623e-07 0)
(3.50612 -1.82299e-07 0)
(3.50612 -1.92998e-07 0)
(3.50612 -1.96859e-07 0)
(3.50612 -2.17878e-07 0)
(3.50612 -2.47746e-07 0)
(3.50612 -2.67455e-07 0)
(3.50612 -2.63626e-07 0)
(3.50612 -2.39876e-07 0)
(3.50612 -2.18579e-07 0)
(3.50612 -2.12771e-07 0)
(3.50612 -2.11646e-07 0)
(3.50612 -1.97316e-07 0)
(3.50612 -1.67274e-07 0)
(3.50612 -1.49416e-07 0)
(3.50612 -1.53131e-07 0)
(3.50612 -1.74576e-07 0)
(3.50612 -1.9892e-07 0)
(3.50612 -2.31269e-07 0)
(3.50612 -2.6858e-07 0)
(3.50612 -2.93151e-07 0)
(3.50612 -3.27774e-07 0)
(3.50612 -3.61899e-07 0)
(3.50612 -4.36738e-07 0)
(3.50612 -5.3753e-07 0)
(3.50612 -5.77465e-07 0)
(3.56919 2.03868e-06 0)
(3.56919 2.14743e-06 0)
(3.56919 2.75401e-06 0)
(3.56919 3.37828e-06 0)
(3.56919 3.86818e-06 0)
(3.56919 4.43687e-06 0)
(3.56919 4.91469e-06 0)
(3.56918 5.06506e-06 0)
(3.56918 4.96403e-06 0)
(3.56918 4.77876e-06 0)
(3.56918 4.52199e-06 0)
(3.56918 4.27396e-06 0)
(3.56918 4.00759e-06 0)
(3.56918 3.64373e-06 0)
(3.56918 3.17149e-06 0)
(3.56918 2.6813e-06 0)
(3.56918 2.25265e-06 0)
(3.56918 1.9224e-06 0)
(3.56918 1.7117e-06 0)
(3.56918 1.59237e-06 0)
(3.56918 1.48491e-06 0)
(3.56918 1.32552e-06 0)
(3.56918 1.11968e-06 0)
(3.56918 9.30559e-07 0)
(3.56918 8.20956e-07 0)
(3.56918 8.01324e-07 0)
(3.56918 8.24686e-07 0)
(3.56918 8.21614e-07 0)
(3.56918 7.49537e-07 0)
(3.56918 6.24899e-07 0)
(3.56917 5.0244e-07 0)
(3.56917 4.18949e-07 0)
(3.56917 3.74005e-07 0)
(3.56917 3.57689e-07 0)
(3.56917 3.74929e-07 0)
(3.56917 4.33088e-07 0)
(3.56917 5.17681e-07 0)
(3.56917 5.92997e-07 0)
(3.56917 6.25246e-07 0)
(3.56918 6.09232e-07 0)
(3.56918 5.72305e-07 0)
(3.56918 5.51842e-07 0)
(3.56918 5.52759e-07 0)
(3.56918 5.39131e-07 0)
(3.56918 4.77515e-07 0)
(3.56918 3.82104e-07 0)
(3.56918 3.03364e-07 0)
(3.56918 2.82231e-07 0)
(3.56918 3.17731e-07 0)
(3.56918 3.69165e-07 0)
(3.56918 3.93799e-07 0)
(3.56918 3.83943e-07 0)
(3.56918 3.67507e-07 0)
(3.56918 3.70857e-07 0)
(3.56918 3.87023e-07 0)
(3.56918 3.86362e-07 0)
(3.56918 3.53677e-07 0)
(3.56918 3.04006e-07 0)
(3.56918 2.60132e-07 0)
(3.56918 2.20964e-07 0)
(3.56918 1.59497e-07 0)
(3.56918 5.10485e-08 0)
(3.56918 -9.44772e-08 0)
(3.56918 -2.27793e-07 0)
(3.56918 -3.04746e-07 0)
(3.56918 -3.27295e-07 0)
(3.56918 -3.3627e-07 0)
(3.56918 -3.66136e-07 0)
(3.56918 -4.08374e-07 0)
(3.56918 -4.27012e-07 0)
(3.56918 -3.95919e-07 0)
(3.56918 -3.30972e-07 0)
(3.56918 -2.7521e-07 0)
(3.56918 -2.53619e-07 0)
(3.56918 -2.47392e-07 0)
(3.56918 -2.17304e-07 0)
(3.56918 -1.52424e-07 0)
(3.56918 -8.57202e-08 0)
(3.56918 -5.96292e-08 0)
(3.56918 -8.19895e-08 0)
(3.56918 -1.15804e-07 0)
(3.56918 -1.22153e-07 0)
(3.56918 -1.01666e-07 0)
(3.56917 -9.10075e-08 0)
(3.56917 -1.21676e-07 0)
(3.56917 -1.77028e-07 0)
(3.56917 -2.08952e-07 0)
(3.56917 -1.83344e-07 0)
(3.56917 -1.17448e-07 0)
(3.56917 -6.1289e-08 0)
(3.56917 -4.5467e-08 0)
(3.56917 -5.40635e-08 0)
(3.56917 -4.48821e-08 0)
(3.56917 1.85287e-09 0)
(3.56917 6.15461e-08 0)
(3.56917 9.49961e-08 0)
(3.56917 8.84751e-08 0)
(3.56917 6.98999e-08 0)
(3.56917 7.54095e-08 0)
(3.56917 1.05855e-07 0)
(3.56917 1.27023e-07 0)
(3.56918 1.09221e-07 0)
(3.56918 6.22203e-08 0)
(3.56918 2.81583e-08 0)
(3.56918 3.8051e-08 0)
(3.56918 8.04529e-08 0)
(3.56918 1.14061e-07 0)
(3.56918 1.12329e-07 0)
(3.56918 9.33212e-08 0)
(3.56918 9.70734e-08 0)
(3.56918 1.40076e-07 0)
(3.56918 1.9667e-07 0)
(3.56918 2.26644e-07 0)
(3.56918 2.14328e-07 0)
(3.56918 1.81783e-07 0)
(3.56918 1.65044e-07 0)
(3.56918 1.74159e-07 0)
(3.56918 1.79928e-07 0)
(3.56918 1.53188e-07 0)
(3.56918 9.8694e-08 0)
(3.56918 4.30275e-08 0)
(3.56918 6.45937e-09 0)
(3.56918 -1.42948e-08 0)
(3.56918 -4.58013e-08 0)
(3.56918 -1.07823e-07 0)
(3.56918 -1.78191e-07 0)
(3.56918 -2.15878e-07 0)
(3.56918 -2.14111e-07 0)
(3.56918 -1.99166e-07 0)
(3.56918 -1.95757e-07 0)
(3.56918 -2.09045e-07 0)
(3.56918 -2.23969e-07 0)
(3.56918 -2.17719e-07 0)
(3.56918 -1.88941e-07 0)
(3.56918 -1.59621e-07 0)
(3.56918 -1.5e-07 0)
(3.56918 -1.63652e-07 0)
(3.56918 -1.80214e-07 0)
(3.56918 -1.96346e-07 0)
(3.56918 -2.02325e-07 0)