/*--------------------------------*- C++ -*----------------------------------*\
| =========                 |                                                 |
| \\      /  F ield         | OpenFOAM: The Open Source CFD Toolbox           |
|  \\    /   O peration     | Version:  2406                                  |
|   \\  /    A nd           | Website:  www.openfoam.com                      |
|    \\/     M anipulation  |                                                 |
\*---------------------------------------------------------------------------*/
FoamFile
{
    version     2.0;
    format      ascii;
    arch        "LSB;label=32;scalar=64";
    class       surfaceScalarField;
    location    "0.4";
    object      phi;
}
// * * * * * * * * * * * * * * * * * * * * * * * * * * * * * * * * * * * * * //

dimensions      [0 3 -1 0 0 0 0];

oriented        oriented;

internalField   nonuniform List<scalar> 
445
(
1.50024e-05
3.98635e-12
1.50024e-05
1.91214e-12
1.50024e-05
7.07191e-13
1.50024e-05
4.28602e-13
1.50024e-05
5.9202e-13
1.50024e-05
4.33316e-13
1.50024e-05
-8.95158e-13
1.50024e-05
-2.34892e-12
1.50024e-05
-2.07584e-12
1.50024e-05
3.16072e-13
1.50024e-05
3.43386e-12
1.50024e-05
3.76306e-12
1.50024e-05
6.55177e-13
1.50024e-05
-3.62593e-12
1.50024e-05
-4.95435e-12
1.50024e-05
-1.8137e-12
1.50024e-05
2.66228e-12
1.50024e-05
5.16174e-12
1.50024e-05
3.30802e-12
1.50024e-05
-8.9013e-13
1.50024e-05
-4.40326e-12
1.50024e-05
-4.63537e-12
1.50024e-05
-1.7565e-12
1.50024e-05
1.57477e-12
1.50024e-05
3.77891e-12
1.50024e-05
3.39342e-12
1.50024e-05
9.05153e-13
1.50024e-05
-2.0987e-12
1.50024e-05
-4.14993e-12
1.50024e-05
-4.08604e-12
1.50024e-05
-1.60011e-12
1.50024e-05
1.60093e-12
1.50024e-05
4.10676e-12
1.50024e-05
3.54885e-12
1.50024e-05
3.75052e-13
1.50024e-05
-3.45782e-12
1.50024e-05
-4.8921e-12
1.50024e-05
-2.72349e-12
1.50024e-05
8.3282e-13
1.50024e-05
3.54921e-12
1.50024e-05
2.95957e-12
1.50024e-05
8.5676e-15
1.50024e-05
-2.73581e-12
1.50024e-05
-3.10721e-12
1.50024e-05
-1.10101e-12
1.50024e-05
1.0751e-12
1.50024e-05
1.99686e-12
1.50024e-05
1.4752e-12
1.50024e-05
8.72071e-13
5.92057e-13
3.28767e-05
8.67667e-12
3.28767e-05
6.17e-12
3.28767e-05
3.64187e-12
3.28767e-05
1.22488e-12
3.28766e-05
8.26852e-14
3.28766e-05
1.91812e-13
3.28767e-05
1.20008e-13
3.28767e-05
-1.09626e-12
3.28767e-05
-2.50537e-12
3.28767e-05
-2.09627e-12
3.28767e-05
5.55928e-13
3.28767e-05
3.53781e-12
3.28767e-05
3.87022e-12
3.28767e-05
7.04366e-13
3.28767e-05
-3.19071e-12
3.28767e-05
-4.53285e-12
3.28767e-05
-2.07134e-12
3.28767e-05
1.80933e-12
3.28767e-05
3.94686e-12
3.28767e-05
2.72427e-12
3.28767e-05
-4.11254e-13
3.28767e-05
-3.12037e-12
3.28767e-05
-3.50237e-12
3.28767e-05
-1.62726e-12
3.28766e-05
7.11052e-13
3.28766e-05
2.36447e-12
3.28766e-05
2.35997e-12
3.28766e-05
7.52164e-13
3.28766e-05
-1.63445e-12
3.28766e-05
-3.62774e-12
3.28766e-05
-3.92145e-12
3.28766e-05
-2.06312e-12
3.28766e-05
9.56591e-13
3.28766e-05
3.30449e-12
3.28766e-05
3.16554e-12
3.28766e-05
4.07193e-13
3.28766e-05
-2.94529e-12
3.28766e-05
-4.32273e-12
3.28766e-05
-2.75691e-12
3.28766e-05
4.12788e-13
3.28766e-05
2.44886e-12
3.28766e-05
1.98257e-12
3.28766e-05
-2.9363e-13
3.28766e-05
-2.29295e-12
3.28766e-05
-2.19593e-12
3.28766e-05
-3.33046e-13
3.28766e-05
1.56257e-12
3.28766e-05
2.18994e-12
3.28766e-05
1.61915e-12
8.78792e-13
3.88105e-05
9.7534e-12
3.88105e-05
7.77767e-12
3.88105e-05
4.97779e-12
3.88105e-05
1.60634e-12
3.88105e-05
-6.12266e-13
3.88105e-05
-7.38197e-13
3.88105e-05
4.07109e-13
3.88105e-05
7.46894e-13
3.88105e-05
-6.47998e-13
3.88105e-05
-2.39675e-12
3.88105e-05
-2.24306e-12
3.88105e-05
3.87568e-13
3.88105e-05
3.44513e-12
3.88105e-05
3.96889e-12
3.88105e-05
1.16648e-12
3.88105e-05
-2.62146e-12
3.88105e-05
-4.21273e-12
3.88105e-05
-2.40547e-12
3.88105e-05
1.06821e-12
3.88105e-05
3.44641e-12
3.88105e-05
3.27643e-12
3.88105e-05
1.07853e-12
3.88105e-05
-1.27877e-12
3.88105e-05
-2.337e-12
3.88105e-05
-1.74946e-12
3.88105e-05
-1.3128e-13
3.88105e-05
1.52645e-12
3.88105e-05
2.35427e-12
3.88105e-05
1.83612e-12
3.88105e-05
1.55353e-13
3.88105e-05
-1.96774e-12
3.88105e-05
-2.96888e-12
3.88105e-05
-1.93403e-12
3.88105e-05
6.96075e-13
3.88105e-05
3.15298e-12
3.88105e-05
3.50506e-12
3.88105e-05
1.30637e-12
3.88105e-05
-1.72847e-12
3.88105e-05
-3.31688e-12
3.88105e-05
-2.36173e-12
3.88105e-05
1.44436e-13
3.88105e-05
2.01573e-12
3.88105e-05
1.90081e-12
3.88105e-05
2.4726e-13
3.88105e-05
-1.16427e-12
3.88105e-05
-1.0595e-12
3.88105e-05
1.94266e-13
3.88105e-05
1.21374e-12
3.88105e-05
1.02713e-12
4.87146e-13
3.28766e-05
5.63546e-12
3.28766e-05
4.51175e-12
3.28767e-05
2.90402e-12
3.28767e-05
8.60641e-13
3.28767e-05
-8.06814e-13
3.28767e-05
-1.0899e-12
3.28767e-05
2.04013e-13
3.28767e-05
1.55138e-12
3.28767e-05
1.18055e-12
3.28767e-05
-9.10387e-13
3.28767e-05
-2.8499e-12
3.28767e-05
-2.19624e-12
3.28767e-05
7.9279e-13
3.28767e-05
3.69671e-12
3.28767e-05
3.71466e-12
3.28767e-05
4.57482e-13
3.28767e-05
-2.87898e-12
3.28767e-05
-4.04274e-12
3.28767e-05
-1.89787e-12
3.28767e-05
1.37453e-12
3.28767e-05
3.72494e-12
3.28767e-05
3.51233e-12
3.28767e-05
1.28646e-12
3.28767e-05
-1.15239e-12
3.28767e-05
-2.5544e-12
3.28767e-05
-2.19421e-12
3.28766e-05
-3.78634e-13
3.28766e-05
1.58328e-12
3.28766e-05
2.99983e-12
3.28766e-05
2.68781e-12
3.28766e-05
5.70756e-13
3.28766e-05
-1.79528e-12
3.28766e-05
-3.15475e-12
3.28766e-05
-2.08957e-12
3.28766e-05
6.31555e-13
3.28766e-05
3.08536e-12
3.28766e-05
3.40567e-12
3.28766e-05
1.11991e-12
3.28766e-05
-1.56478e-12
3.28766e-05
-3.01758e-12
3.28766e-05
-1.96011e-12
3.28766e-05
4.16736e-13
3.28766e-05
1.98786e-12
3.28766e-05
1.77294e-12
3.28766e-05
2.33748e-13
3.28766e-05
-8.53894e-13
3.28766e-05
-8.44983e-13
3.28766e-05
-2.62507e-13
3.28766e-05
-4.57062e-14
-4.3696e-14
1.50024e-05
1.50024e-05
1.50024e-05
1.50024e-05
1.50024e-05
1.50024e-05
1.50024e-05
1.50024e-05
1.50024e-05
1.50024e-05
1.50024e-05
1.50024e-05
1.50024e-05
1.50024e-05
1.50024e-05
1.50024e-05
1.50024e-05
1.50024e-05
1.50024e-05
1.50024e-05
1.50024e-05
1.50024e-05
1.50024e-05
1.50024e-05
1.50024e-05
1.50024e-05
1.50024e-05
1.50024e-05
1.50024e-05
1.50024e-05
1.50024e-05
1.50024e-05
1.50024e-05
1.50024e-05
1.50024e-05
1.50024e-05
1.50024e-05
1.50024e-05
1.50024e-05
1.50024e-05
1.50024e-05
1.50024e-05
1.50024e-05
1.50024e-05
1.50024e-05
1.50024e-05
1.50024e-05
1.50024e-05
1.50024e-05
)
;

boundaryField
{
    inlet
    {
        type            calculated;
        value           nonuniform List<scalar> 5(-1.50024e-05 -3.28767e-05 -3.88105e-05 -3.28766e-05 -1.50024e-05);
    }
    outlet
    {
        type            calculated;
        value           nonuniform List<scalar> 5(1.50024e-05 3.28766e-05 3.88105e-05 3.28766e-05 1.50024e-05);
    }
    walls
    {
        type            calculated;
        value           uniform 0;
    }
    frontAndBack
    {
        type            empty;
    }
}


// ************************************************************************* //
