/*--------------------------------*- C++ -*----------------------------------*\
| =========                 |                                                 |
| \\      /  F ield         | OpenFOAM: The Open Source CFD Toolbox           |
|  \\    /   O peration     | Version:  2406                                  |
|   \\  /    A nd           | Website:  www.openfoam.com                      |
|    \\/     M anipulation  |                                                 |
\*---------------------------------------------------------------------------*/
FoamFile
{
    version     2.0;
    format      ascii;
    arch        "LSB;label=32;scalar=64";
    class       volVectorField;
    location    "0.4";
    object      U;
}
// * * * * * * * * * * * * * * * * * * * * * * * * * * * * * * * * * * * * * //

dimensions      [0 1 -1 0 0 0 0];

internalField   nonuniform List<vector> 
250
(
(0.0750119 9.77847e-09 0)
(0.0750119 3.57291e-09 0)
(0.0750119 2.89089e-10 0)
(0.0750119 1.59814e-10 0)
(0.0750119 1.36413e-09 0)
(0.0750119 1.02395e-09 0)
(0.0750119 -2.36596e-09 0)
(0.0750119 -6.1329e-09 0)
(0.0750119 -5.39977e-09 0)
(0.0750119 1.57592e-09 0)
(0.0750119 9.46421e-09 0)
(0.0750119 9.89411e-09 0)
(0.0750119 7.44817e-10 0)
(0.0750119 -1.06062e-08 0)
(0.0750119 -1.35986e-08 0)
(0.0750119 -4.72008e-09 0)
(0.0750119 8.27848e-09 0)
(0.0750119 1.45336e-08 0)
(0.0750119 8.91227e-09 0)
(0.0750119 -3.07847e-09 0)
(0.0750119 -1.23735e-08 0)
(0.0750119 -1.27301e-08 0)
(0.0750119 -4.74721e-09 0)
(0.0750119 4.89018e-09 0)
(0.0750119 1.06188e-08 0)
(0.0750119 9.28821e-09 0)
(0.0750119 2.13346e-09 0)
(0.0750119 -5.92132e-09 0)
(0.0750119 -1.11736e-08 0)
(0.0750119 -1.07466e-08 0)
(0.0750119 -4.09561e-09 0)
(0.0750119 5.36733e-09 0)
(0.0750119 1.15061e-08 0)
(0.0750119 9.4147e-09 0)
(0.0750119 3.39434e-11 0)
(0.0750119 -9.95754e-09 0)
(0.0750119 -1.34155e-08 0)
(0.0750119 -7.31209e-09 0)
(0.0750119 3.35401e-09 0)
(0.0750119 1.02245e-08 0)
(0.0750119 8.07746e-09 0)
(0.0750119 -3.37588e-10 0)
(0.0750119 -7.59208e-09 0)
(0.0750119 -8.46234e-09 0)
(0.0750119 -3.13927e-09 0)
(0.0750119 2.92437e-09 0)
(0.0750119 5.16857e-09 0)
(0.0750119 4.06651e-09 0)
(0.0750118 2.50478e-09 0)
(0.0750118 1.78986e-09 0)
(0.164383 3.44057e-08 0)
(0.164383 2.12703e-08 0)
(0.164383 1.07785e-08 0)
(0.164383 3.9384e-09 0)
(0.164383 1.80327e-09 0)
(0.164383 1.59306e-09 0)
(0.164383 -2.22878e-09 0)
(0.164383 -9.48342e-09 0)
(0.164383 -1.22289e-08 0)
(0.164383 -4.07046e-09 0)
(0.164383 1.11961e-08 0)
(0.164383 1.94363e-08 0)
(0.164383 1.10228e-08 0)
(0.164383 -8.79442e-09 0)
(0.164383 -2.24714e-08 0)
(0.164383 -1.70292e-08 0)
(0.164383 2.60739e-09 0)
(0.164383 1.9439e-08 0)
(0.164383 1.9404e-08 0)
(0.164383 4.0706e-09 0)
(0.164383 -1.40072e-08 0)
(0.164383 -2.15947e-08 0)
(0.164383 -1.45706e-08 0)
(0.164383 -5.22963e-11 0)
(0.164383 1.24272e-08 0)
(0.164383 1.55653e-08 0)
(0.164383 8.28049e-09 0)
(0.164383 -4.27917e-09 0)
(0.164383 -1.62064e-08 0)
(0.164383 -2.10714e-08 0)
(0.164383 -1.49223e-08 0)
(0.164383 -4.87714e-10 0)
(0.164383 1.39975e-08 0)
(0.164383 1.8199e-08 0)
(0.164383 8.32503e-09 0)
(0.164383 -9.18789e-09 0)
(0.164383 -2.166e-08 0)
(0.164383 -1.90746e-08 0)
(0.164383 -4.20879e-09 0)
(0.164383 1.1005e-08 0)
(0.164383 1.45693e-08 0)
(0.164383 4.91107e-09 0)
(0.164383 -8.68396e-09 0)
(0.164383 -1.47572e-08 0)
(0.164383 -9.09427e-09 0)
(0.164383 2.0021e-09 0)
(0.164383 9.53241e-09 0)
(0.164383 1.02293e-08 0)
(0.164383 7.20162e-09 0)
(0.164383 4.50373e-09 0)
(0.194053 5.25678e-08 0)
(0.194053 4.02354e-08 0)
(0.194053 2.52701e-08 0)
(0.194053 9.09004e-09 0)
(0.194053 -8.49217e-10 0)
(0.194053 -1.47836e-09 0)
(0.194053 1.05853e-09 0)
(0.194053 -1.36225e-09 0)
(0.194053 -8.33336e-09 0)
(0.194053 -1.17945e-08 0)
(0.194053 -4.32436e-09 0)
(0.194053 1.02585e-08 0)
(0.194053 1.90673e-08 0)
(0.194053 1.24767e-08 0)
(0.194053 -5.19e-09 0)
(0.194053 -1.86669e-08 0)
(0.194053 -1.67069e-08 0)
(0.194053 -1.87634e-09 0)
(0.194053 1.27463e-08 0)
(0.194053 1.61059e-08 0)
(0.194053 7.44968e-09 0)
(0.194053 -5.29558e-09 0)
(0.194053 -1.25323e-08 0)
(0.194053 -1.08083e-08 0)
(0.194053 -2.89651e-09 0)
(0.194053 5.73292e-09 0)
(0.194053 1.01084e-08 0)
(0.194053 8.09414e-09 0)
(0.194053 4.24091e-10 0)
(0.194053 -9.37622e-09 0)
(0.194053 -1.54565e-08 0)
(0.194053 -1.34214e-08 0)
(0.194053 -2.68769e-09 0)
(0.194053 1.045e-08 0)
(0.194053 1.66239e-08 0)
(0.194053 1.04484e-08 0)
(0.194053 -3.99192e-09 0)
(0.194053 -1.56115e-08 0)
(0.194053 -1.59598e-08 0)
(0.194053 -5.55107e-09 0)
(0.194052 6.57386e-09 0)
(0.194052 1.0458e-08 0)
(0.194052 4.21691e-09 0)
(0.194052 -5.13123e-09 0)
(0.194052 -8.61703e-09 0)
(0.194052 -3.57628e-09 0)
(0.194052 4.89243e-09 0)
(0.194052 9.34238e-09 0)
(0.194052 7.41891e-09 0)
(0.194052 4.01628e-09 0)
(0.164383 4.37765e-08 0)
(0.164383 3.50525e-08 0)
(0.164383 2.26016e-08 0)
(0.164383 7.36964e-09 0)
(0.164383 -3.67956e-09 0)
(0.164383 -4.79718e-09 0)
(0.164383 1.69861e-09 0)
(0.164383 6.61899e-09 0)
(0.164383 2.11047e-09 0)
(0.164383 -8.46114e-09 0)
(0.164383 -1.38871e-08 0)
(0.164383 -5.70819e-09 0)
(0.164383 1.07131e-08 0)
(0.164383 2.07765e-08 0)
(0.164383 1.40354e-08 0)
(0.164383 -4.33909e-09 0)
(0.164383 -1.859e-08 0)
(0.164383 -1.76374e-08 0)
(0.164383 -3.14372e-09 0)
(0.164383 1.29097e-08 0)
(0.164383 1.94127e-08 0)
(0.164383 1.33834e-08 0)
(0.164383 1.13263e-09 0)
(0.164383 -8.77184e-09 0)
(0.164383 -1.17295e-08 0)
(0.164383 -6.78394e-09 0)
(0.164383 2.583e-09 0)
(0.164383 1.09777e-08 0)
(0.164383 1.40933e-08 0)
(0.164383 8.92818e-09 0)
(0.164383 -2.32403e-09 0)
(0.164383 -1.22846e-08 0)
(0.164383 -1.38988e-08 0)
(0.164383 -4.59559e-09 0)
(0.164383 9.61978e-09 0)
(0.164383 1.81012e-08 0)
(0.164383 1.37742e-08 0)
(0.164383 -1.34839e-10 0)
(0.164383 -1.24241e-08 0)
(0.164383 -1.43755e-08 0)
(0.164383 -5.32536e-09 0)
(0.164383 6.17768e-09 0)
(0.164383 1.08291e-08 0)
(0.164383 6.21587e-09 0)
(0.164383 -1.70027e-09 0)
(0.164383 -5.02384e-09 0)
(0.164383 -2.32902e-09 0)
(0.164383 1.63987e-09 0)
(0.164383 1.74446e-09 0)
(0.164383 6.01841e-10 0)
(0.0750118 1.56469e-08 0)
(0.0750119 1.22795e-08 0)
(0.0750119 7.67816e-09 0)
(0.0750119 2.00824e-09 0)
(0.0750119 -2.40579e-09 0)
(0.0750119 -2.76232e-09 0)
(0.0750119 7.81445e-10 0)
(0.0750119 4.67717e-09 0)
(0.0750119 3.6922e-09 0)
(0.0750119 -2.25819e-09 0)
(0.0750119 -7.86042e-09 0)
(0.0750119 -6.53098e-09 0)
(0.0750119 1.82561e-09 0)
(0.0750119 1.01183e-08 0)
(0.0750119 1.04782e-08 0)
(0.0750119 2.1693e-09 0)
(0.0750119 -7.50414e-09 0)
(0.0750119 -1.09463e-08 0)
(0.0750119 -5.54781e-09 0)
(0.0750119 3.86389e-09 0)
(0.0750119 1.03568e-08 0)
(0.0750119 9.9323e-09 0)
(0.0750119 3.96326e-09 0)
(0.0750119 -2.86434e-09 0)
(0.0750119 -7.08005e-09 0)
(0.0750119 -6.35106e-09 0)
(0.0750119 -1.47465e-09 0)
(0.0750119 4.49988e-09 0)
(0.0750119 8.68624e-09 0)
(0.0750119 8.0726e-09 0)
(0.0750119 2.39398e-09 0)
(0.0750119 -4.69481e-09 0)
(0.0750119 -8.79541e-09 0)
(0.0750119 -6.39653e-09 0)
(0.0750119 1.18117e-09 0)
(0.0750119 8.41694e-09 0)
(0.0750119 9.61708e-09 0)
(0.0750119 3.84347e-09 0)
(0.0750119 -3.96366e-09 0)
(0.0750119 -8.09489e-09 0)
(0.0750119 -5.52603e-09 0)
(0.0750119 8.81055e-10 0)
(0.0750119 5.51742e-09 0)
(0.0750119 5.11562e-09 0)
(0.0750119 1.02854e-09 0)
(0.0750119 -2.35435e-09 0)
(0.0750119 -2.88833e-09 0)
(0.0750119 -1.57029e-09 0)
(0.0750119 -9.81662e-10 0)
(0.0750119 -6.90394e-10 0)
)
;

boundaryField
{
    inlet
    {
        type            zeroGradient;
    }
    outlet
    {
        type            zeroGradient;
    }
    walls
    {
        type            noSlip;
    }
    frontAndBack
    {
        type            empty;
    }
}


// ************************************************************************* //
