/*--------------------------------*- C++ -*----------------------------------*\
| =========                 |                                                 |
| \\      /  F ield         | OpenFOAM: The Open Source CFD Toolbox           |
|  \\    /   O peration     | Version:  2406                                  |
|   \\  /    A nd           | Website:  www.openfoam.com                      |
|    \\/     M anipulation  |                                                 |
\*---------------------------------------------------------------------------*/
FoamFile
{
    version     2.0;
    format      ascii;
    arch        "LSB;label=32;scalar=64";
    class       volScalarField;
    location    "0.2";
    object      alpha.glycerin;
}
// * * * * * * * * * * * * * * * * * * * * * * * * * * * * * * * * * * * * * //

dimensions      [0 0 0 0 0 0 0];

internalField   nonuniform List<scalar> 
6250
(
4.662e-320
4.662e-320
4.66398e-320
4.66497e-320
4.66596e-320
4.66793e-320
4.66793e-320
4.66991e-320
4.67188e-320
4.67386e-320
4.67584e-320
4.67781e-320
4.67979e-320
4.68177e-320
4.68374e-320
4.68671e-320
4.68967e-320
4.69362e-320
4.69659e-320
4.69955e-320
4.70449e-320
4.70943e-320
4.71437e-320
-4.71932e-320
4.72623e-320
4.73315e-320
-9.48211e-320
-9.49989e-320
-1.61024e-302
-8.78229e-282
-2.37332e-263
-3.38468e-238
-9.55616e-220
-2.6389e-202
-8.97552e-187
-6.12644e-172
-1.48909e-157
-1.17379e-143
-3.51714e-130
-5.30253e-117
-3.29276e-104
-8.08e-92
-3.19643e-80
-1.65052e-69
-3.96838e-58
-2.7593e-49
-1.09896e-41
-3.39407e-35
-7.83112e-30
-6.72189e-26
-4.51242e-23
-1.64519e-21
-3.80499e-21
-2.67281e-21
-3.82851e-21
0.0480157
0.821259
0.999943
0.999945
0.999945
0.999945
0.999945
0.999945
0.999945
0.999942
0.99993
0.999932
0.999946
0.999947
0.99994
0.999937
0.999937
0.999938
0.999938
0.999938
0.999938
0.999939
0.999939
0.999939
0.999935
0.999938
0.999967
0.999935
0.99992
0.99992
0.99992
0.999966
0.999995
0.999981
0.999979
0.999979
0.999979
0.999979
0.999979
0.999979
0.999984
0.999985
0.999966
0.999936
0.999936
0.999976
0.999998
0.999996
0.999993
0.999993
0.999994
0.999998
0.999997
0.99994
0.999936
0.999947
0.999996
0.999999
0.999999
0.999998
0.999998
0.999999
0.999999
0.999998
0.999995
0.99996
0.999925
0.999925
0.999958
0.999944
0.999927
0.999927
0.999946
0.999984
0.999992
0.999986
0.999956
0.999951
0.999951
0.999963
0.999958
0.999957
0.999957
0.999964
0.999978
0.999978
0.999988
1
1
1
0.999988
0.999979
0.999979
0.999979
0.999979
0.999986
0.999983
0.999982
0.999982
0.999986
1
1
1
1
1
1
1
1
1
0.999999
0.999985
0.999985
0.999985
0.999985
0.999985
0.999985
0.999985
0.99999
1
1
1
1
1
1
1
1
1
1
1
1
1
1
1
1
1
1
1
1
1
1
1
1
1
0.999999
0.999999
0.999999
0.999994
0.999967
0.999953
0.999967
0.999974
0.999974
0.999974
0.999974
0.999974
0.999974
0.999971
0.999965
0.999971
0.999992
1
1
1
1
0.999999
0.999986
0.999986
0.999985
0.999976
0.999978
0.99999
1
1
1
1
1
1
1
1
1
1
1
1
1
1
1
1
1
1
1
1
0.999996
0.999994
0.999996
0.999998
4.66003e-320
4.65904e-320
4.65805e-320
4.65706e-320
4.65706e-320
4.65607e-320
4.65607e-320
4.6541e-320
4.6541e-320
4.65311e-320
4.65212e-320
4.65212e-320
4.65015e-320
4.65015e-320
4.64817e-320
4.64817e-320
4.64619e-320
4.64619e-320
4.64422e-320
4.64422e-320
4.64224e-320
4.64026e-320
4.64026e-320
-4.63829e-320
4.63631e-320
4.63434e-320
-4.63236e-320
-4.63038e-320
-1.37027e-303
-7.64804e-283
-2.1157e-264
-3.08879e-239
-8.92569e-221
-2.52165e-203
-8.76897e-188
-6.11433e-173
-1.51649e-158
-1.21818e-144
-3.7139e-131
-5.6864e-118
-3.57838e-105
-8.87555e-93
-3.53809e-81
-1.83488e-70
-4.41506e-59
-3.05821e-50
-1.20618e-42
-3.65885e-36
-8.1947e-31
-6.69126e-27
-4.10746e-24
-1.28084e-22
-1.48087e-22
-1.77795e-22
-8.42715e-22
0.0143183
0.0562643
0.171217
0.793397
0.999945
0.999945
0.999945
0.999945
0.999945
0.999336
0.999159
0.999256
0.99995
1
0.999998
0.999998
0.999998
1
1
1
1
0.999909
0.999028
0.998967
0.999782
1
1
1
1
1
1
1
1
1
1
1
1
1
1
1
1
1
1
1
1
1
1
1
1
1
1
1
1
1
1
1
1
1
1
1
1
1
1
1
1
1
1
1
1
1
1
1
1
1
1
1
1
1
1
1
1
1
1
1
1
1
1
1
1
1
1
1
1
1
1
1
1
1
1
1
1
1
1
1
1
1
1
1
1
1
1
1
1
1
1
1
1
1
1
1
1
1
1
1
1
1
1
1
1
1
1
1
1
1
1
1
0.999988
0.999474
0.996478
0.989822
0.982317
0.978059
0.976798
0.977951
0.982523
0.989578
0.996029
0.999744
0.999957
0.999971
0.999974
0.999974
0.999641
0.998875
0.998291
0.997987
0.998327
0.999469
0.999981
0.999998
1
1
1
1
1
0.999997
0.998083
0.996968
0.998582
0.999975
0.999995
1
1
1
1
1
1
1
1
1
1
1.00001
1
1
1
1
1
1.00001
1.00001
1.00001
1.00001
1
1
0.999996
0.999998
4.66003e-320
4.66003e-320
4.66003e-320
4.66003e-320
4.66003e-320
4.66003e-320
4.66003e-320
4.66003e-320
4.66003e-320
4.66003e-320
4.66003e-320
4.66003e-320
4.66003e-320
4.66003e-320
4.66003e-320
4.66003e-320
4.66102e-320
4.66102e-320
4.662e-320
4.662e-320
4.662e-320
4.662e-320
4.66299e-320
-4.66398e-320
4.66398e-320
4.66398e-320
-4.66398e-320
-9.32994e-320
-1.52221e-304
-8.71945e-284
-2.47441e-265
-3.70349e-240
-1.09627e-221
-3.16951e-204
-1.12667e-188
-8.02017e-174
-2.02789e-159
-1.65767e-145
-5.13234e-132
-7.96307e-119
-5.06633e-106
-1.26746e-93
-5.08367e-82
-2.64625e-71
-6.37475e-60
-4.40869e-51
-1.73089e-43
-5.20989e-37
-1.15333e-31
-9.27387e-28
-5.58357e-25
-1.74479e-23
-3.67233e-23
-6.02305e-23
-3.42835e-23
-3.64126e-07
1.42927e-05
2.18559e-05
0.0479328
0.171178
0.200607
0.269905
0.588592
0.986715
0.999999
1
1
1
1
1
1
1
0.98297
0.897389
0.894466
0.944571
0.999909
0.894457
0.826278
0.826279
0.886264
0.97869
0.984557
0.98181
0.956897
0.900649
0.889285
0.897528
0.916324
0.918522
0.898778
0.861995
0.816375
0.761047
0.714411
0.688995
0.665442
0.637029
0.612183
0.614317
0.654552
0.733345
0.799803
0.846632
0.890117
0.941523
0.996204
1
0.989439
0.97335
0.977288
0.987153
0.994819
0.997152
0.997893
0.998819
0.999472
0.99836
0.994988
0.990291
0.985236
0.981004
0.977934
0.975561
0.973783
0.973057
0.97335
0.974253
0.975862
0.977636
0.97917
0.980462
0.981444
0.982059
0.982559
0.983472
0.984845
0.986068
0.987199
0.98877
0.990778
0.992839
0.994573
0.996014
0.997659
0.998485
0.998792
0.999174
0.999531
0.999728
0.99981
0.999786
0.999726
0.999706
0.999727
0.999779
0.999822
0.999852
0.999878
0.999904
0.999941
0.999981
0.999759
0.99765
0.994857
0.991366
0.987195
0.982343
0.976241
0.968369
0.958367
0.945969
0.931079
0.913711
0.893693
0.870865
0.845649
0.81946
0.794228
0.771749
0.750097
0.727631
0.704982
0.678165
0.65149
0.629466
0.614905
0.604684
0.604739
0.608226
0.60385
0.589291
0.557315
0.490596
0.395806
0.321575
0.292317
0.283769
0.280921
0.299715
0.35504
0.447316
0.584494
0.715779
0.732046
0.686024
0.618103
0.560326
0.524266
0.507708
0.495838
0.499122
0.540751
0.62261
0.761932
0.905103
0.981029
0.99482
1
0.982074
0.869005
0.598497
0.428653
0.486561
0.646035
0.790721
0.858902
0.937635
0.990859
1
1
1
0.991922
0.983688
0.991269
0.999232
1
1
1
0.998219
0.998202
0.999846
1
1
1
1
1
1
1
0.999925
4.66003e-320
4.66003e-320
4.66003e-320
4.66003e-320
4.66003e-320
4.66003e-320
4.66003e-320
4.65904e-320
4.65904e-320
4.65904e-320
4.65904e-320
4.65904e-320
4.65904e-320
4.65904e-320
4.65904e-320
4.65904e-320
4.65904e-320
4.66003e-320
4.66003e-320
4.66003e-320
4.66003e-320
4.66003e-320
4.66003e-320
-4.66003e-320
4.66003e-320
4.66003e-320
-4.66003e-320
-4.66003e-320
-1.89356e-305
-1.10272e-284
-3.17841e-266
-4.82687e-241
-1.44815e-222
-4.23887e-205
-1.52385e-189
-1.0959e-174
-2.79685e-160
-2.30586e-146
-7.1966e-133
-1.12522e-119
-7.2137e-107
-1.81866e-94
-7.35296e-83
-3.85981e-72
-9.3806e-61
-6.54798e-52
-2.59619e-44
-7.89843e-38
-1.76988e-32
-1.44474e-28
-8.9002e-26
-2.93099e-24
-9.11418e-24
-1.95582e-23
-6.76398e-24
-5.97877e-08
1.1382e-06
1.91483e-06
2.01849e-05
2.05965e-05
1.38354e-05
1.53444e-05
0.0258648
0.0876331
0.211558
0.235405
0.249972
0.441593
0.511601
0.311472
0.0733524
0.151323
0.675615
0.948536
0.948718
0.949443
0.944498
0.917524
0.907185
0.908165
0.908163
0.590335
0.134363
0.0859132
0.360837
0.893852
0.670202
0.273323
0.24803
0.404205
0.535671
0.375941
0.146855
0.103109
0.101191
0.0910812
0.0729379
0.0532371
0.0417782
0.0333935
0.0328196
0.0362607
0.0391686
0.0423369
0.0476814
0.0532717
0.0503014
0.0792098
0.404682
0.77194
0.654699
0.402035
0.412162
0.491939
0.490369
0.447318
0.412473
0.398023
0.383105
0.36747
0.354175
0.343316
0.333422
0.322
0.310249
0.300902
0.296571
0.297252
0.301668
0.311912
0.326124
0.341048
0.352493
0.356494
0.355568
0.353876
0.352857
0.352464
0.35517
0.362866
0.375353
0.390289
0.403171
0.412021
0.418949
0.427469
0.438984
0.455716
0.480645
0.509358
0.525926
0.528982
0.525664
0.523192
0.520106
0.516063
0.50931
0.502466
0.498981
0.495422
0.488245
0.47569
0.45828
0.438107
0.415814
0.391172
0.36701
0.34649
0.32581
0.300552
0.269818
0.236626
0.204314
0.173587
0.144277
0.11505
0.0877415
0.0644973
0.0460033
0.0305995
0.0178036
0.00586119
5.60689e-06
4.74747e-06
3.66371e-06
3.42481e-06
3.42481e-06
0.0003255
0.000522515
0.000577915
0.000459097
0.000114717
1.11926e-06
1.11355e-06
1.10675e-06
1.08387e-06
1.06288e-06
1.05632e-06
1.05233e-06
1.04881e-06
1.04244e-06
1.03803e-06
1.03719e-06
1.0079e-06
9.75981e-07
9.71724e-07
9.71716e-07
9.71724e-07
9.71724e-07
1.08554e-06
1.33951e-06
8.42205e-07
8.24027e-07
8.27373e-07
8.27373e-07
8.75474e-07
1.0729e-06
0.263362
0.791903
0.601719
0.0742682
4.42311e-06
4.04266e-06
4.03018e-06
4.03017e-06
4.03018e-06
4.03017e-06
0.0218822
0.370984
0.738119
0.77534
0.745378
0.513964
0.218879
0.319515
0.7581
0.965322
0.986656
0.996313
0.776272
0.508674
0.60774
0.828624
0.957068
0.996089
0.99966
0.998771
1
1
1
4.66003e-320
4.66003e-320
4.66003e-320
4.66003e-320
4.66003e-320
4.66003e-320
4.65904e-320
4.65904e-320
4.65904e-320
4.65904e-320
4.65805e-320
4.65805e-320
4.65805e-320
4.65805e-320
4.65805e-320
4.65805e-320
4.65805e-320
4.65805e-320
4.65805e-320
4.65805e-320
4.65706e-320
4.65706e-320
4.65607e-320
-4.65607e-320
4.65607e-320
4.65509e-320
-4.6541e-320
-4.6541e-320
-2.49796e-306
-1.47037e-285
-4.27861e-267
-6.55109e-242
-1.97882e-223
-5.82306e-206
-2.10143e-190
-1.51494e-175
-3.8703e-161
-3.19027e-147
-9.94513e-134
-1.55203e-120
-9.92797e-108
-2.49787e-95
-1.00867e-83
-5.29665e-73
-1.29069e-61
-9.06183e-53
-3.62818e-45
-1.11998e-38
-2.5608e-33
-2.14638e-29
-1.37108e-26
-4.81465e-25
-2.01296e-24
-5.42132e-24
-1.68971e-24
-5.90189e-09
7.03622e-08
-1.66663e-08
1.09563e-06
1.73576e-06
1.42206e-06
1.40315e-06
4.79201e-06
3.53837e-06
7.02562e-06
7.9628e-06
7.30612e-06
0.0046693
0.00276565
1.30746e-05
1.25148e-05
1.19139e-05
0.0228216
0.0421777
0.0370865
0.0277998
0.134087
0.428867
0.330754
0.0940825
0.0269625
0.00379372
1.14559e-06
1.11944e-06
1.08917e-06
0.148343
0.566536
0.573994
0.349945
0.0123822
0.0071666
1.56749e-05
0.0369284
0.10374
0.100471
0.0303498
0.00721952
0.00177297
0.000296101
0.0139243
0.0140003
0.00290183
0.00133959
0.00188451
0.00586165
0.00699496
0.00502342
0.00488301
0.00834225
0.0277085
0.0476271
0.0490095
0.0378117
0.0218117
0.0141756
0.00904551
0.00532559
0.00281613
0.00156511
0.00104187
0.0009178
0.000502412
0.000181622
0.00014196
0.000110043
8.13752e-05
4.60829e-05
4.27141e-05
4.23196e-05
9.23615e-05
0.000153205
0.000112671
6.08789e-05
1.36992e-05
5.84566e-06
5.32419e-06
5.309e-06
5.98099e-05
0.000131872
0.000221499
0.000298459
0.000223525
0.000128202
4.91572e-05
2.90567e-05
3.1221e-05
3.55478e-05
4.36728e-05
7.5181e-05
0.00114448
0.00390436
0.00414446
0.00301074
0.00284436
0.00295742
0.00327202
0.00421202
0.00492307
0.00552907
0.00584917
0.00525827
0.00435467
0.00327172
0.00201064
0.000845444
0.000378619
0.000125878
6.26325e-05
2.74681e-05
3.72714e-05
8.75304e-05
0.000137139
0.000175999
0.000199168
0.000210724
0.000218019
0.000219369
0.000274026
0.000442796
0.000635733
0.000563295
0.00157452
0.00223943
0.00223923
0.00179245
0.000312367
7.33501e-05
2.26192e-05
1.1011e-05
1.1252e-05
1.76361e-05
3.36786e-05
3.25671e-05
3.59707e-05
7.99362e-05
7.89338e-05
3.66791e-05
3.72885e-06
1.05632e-06
1.05233e-06
0.000133017
0.000430516
0.000422373
0.000411116
8.26995e-05
9.75981e-07
9.71724e-07
0.000409891
0.00124767
0.00125216
0.00124974
0.000797512
1.78185e-05
0.000108076
0.00027851
0.000276572
5.73257e-05
4.96626e-06
4.93197e-06
4.96595e-06
4.96594e-06
0.000161335
0.00010797
1.73275e-05
4.03291e-06
4.91643e-06
2.29077e-05
1.15233e-05
5.96734e-06
5.96546e-06
5.96734e-06
5.96734e-06
6.29767e-06
6.48435e-06
6.40985e-06
6.41003e-06
6.40965e-06
0.0422885
0.40206
0.361008
0.0517768
1.5734e-05
1.32978e-05
1.33019e-05
0.291129
0.829082
0.691201
0.214848
0.355742
0.91877
-4.66003e-320
-4.66003e-320
-4.66003e-320
-4.65904e-320
-4.65904e-320
-4.65904e-320
-4.65805e-320
-4.65805e-320
-4.65805e-320
-4.65805e-320
-4.65805e-320
-4.65805e-320
-4.65805e-320
-4.65706e-320
-4.65706e-320
-4.65607e-320
-4.65607e-320
-4.65607e-320
4.65607e-320
4.65509e-320
4.6541e-320
4.6541e-320
4.65311e-320
-4.65212e-320
4.65113e-320
4.65015e-320
-4.64916e-320
-4.64817e-320
-3.26342e-307
-1.93443e-286
-5.66161e-268
-8.70752e-243
-2.63834e-224
-7.77683e-207
-2.80719e-191
-2.02138e-176
-5.15122e-162
-4.2303e-148
-1.31242e-134
-2.03665e-121
-1.29475e-108
-3.23681e-96
-1.29908e-84
-6.78593e-74
-1.64739e-62
-1.15486e-53
-4.63139e-46
-1.43796e-39
-3.32472e-34
-2.83643e-30
-1.86375e-27
-6.93338e-26
-3.6808e-25
-1.21203e-24
-3.82092e-25
-1.13838e-10
4.7059e-09
4.20453e-09
8.73419e-08
9.31019e-08
1.16476e-07
1.21551e-07
-2.0889e-07
2.36215e-07
4.16926e-07
4.92925e-07
4.51537e-07
7.09427e-07
3.62002e-06
1.26969e-05
1.34113e-05
1.179e-05
1.38172e-06
1.02802e-06
5.66431e-07
5.80474e-07
1.18699e-06
0.000846999
0.000141494
5.34324e-06
2.93463e-06
1.02546e-06
1.9121e-06
1.91276e-06
1.10023e-06
0.000567165
0.0169131
0.01832
0.0158684
0.010937
0.000312767
1.3257e-08
2.64861e-08
0.0272655
0.0979825
0.097805
0.0972118
0.0308682
9.99626e-05
0.0108838
0.0139109
0.00460342
9.85704e-05
9.24866e-05
0.000110447
0.00602237
0.00655853
0.00604083
0.00144111
0.00118427
0.00110773
0.00044561
0.0062846
0.0217506
0.0215557
0.00706815
2.94242e-05
4.98986e-06
3.1567e-06
2.45479e-06
0.00144481
0.00280718
0.00280718
0.00260377
0.000435104
4.77187e-05
4.27141e-05
4.23196e-05
4.22305e-05
4.23084e-05
0.000283337
0.000384593
0.000130598
7.74607e-06
5.32419e-06
5.29377e-06
5.309e-06
0.000429376
0.000753785
0.00075388
0.0007538
0.000718334
3.31132e-05
6.4312e-06
6.43072e-06
6.43173e-06
6.49911e-06
6.98259e-06
1.0895e-05
0.000535338
0.00172458
0.00221106
0.00220214
0.0021932
0.00283191
0.0040276
0.00427943
0.00297723
0.000129999
2.27794e-06
2.27794e-06
2.27794e-06
0.000218735
0.00204793
0.00212705
0.00212247
0.000791734
5.65989e-08
4.86316e-08
4.80661e-08
8.21123e-08
1.11191e-07
0.000321403
0.000382194
0.000382745
0.000382457
0.000377705
5.19758e-05
2.54235e-08
1.67999e-08
9.76888e-09
5.44129e-09
0.000433122
0.00216653
0.00216676
0.00210789
0.00210035
0.000544111
2.87195e-10
2.76365e-10
6.62461e-10
0.00177218
0.00381937
0.0023079
0.000432803
0.000399097
0.000384353
0.000280537
0.000304866
0.000432433
0.000433093
0.000431703
0.000394193
0.000195861
0.000132005
0.00029064
0.00027974
9.85701e-05
8.88188e-05
9.04681e-05
0.00032803
0.000815524
0.000815524
0.000797541
0.000128815
9.86605e-05
0.000462174
0.000281202
1.12205e-05
4.96575e-06
5.49526e-06
5.92143e-06
5.93595e-06
3.06481e-05
4.9944e-05
7.02237e-05
9.75753e-05
9.51273e-05
1.26191e-05
5.96734e-06
2.78665e-05
0.000638146
0.000664474
0.000664258
0.000595439
6.44441e-06
1.95181e-05
7.81549e-06
7.80303e-06
7.80295e-06
7.80303e-06
2.23203e-05
2.1212e-05
2.9209e-05
1.10267e-05
1.08036e-05
1.08036e-05
1.08029e-05
1.11142e-05
0.127759
-4.66003e-320
-4.66003e-320
-4.65904e-320
-4.65904e-320
-4.65904e-320
-4.65805e-320
-4.65805e-320
-4.65805e-320
-4.65805e-320
-4.65805e-320
-4.65805e-320
-4.65706e-320
-4.65607e-320
-4.65607e-320
-4.65607e-320
-4.65607e-320
-4.65509e-320
-4.6541e-320
4.6541e-320
4.65311e-320
4.65212e-320
4.65113e-320
4.65015e-320
-4.64817e-320
4.64817e-320
4.64619e-320
-4.64422e-320
-4.64224e-320
-4.04029e-308
-2.40413e-287
-7.05509e-269
-1.08658e-243
-3.2925e-225
-9.69227e-208
-3.48916e-192
-2.5023e-177
-6.3428e-163
-5.17515e-149
-1.59362e-135
-2.45278e-122
-1.54575e-109
-3.83002e-97
-1.52384e-85
-7.89652e-75
-1.90385e-63
-1.32766e-54
-5.30821e-47
-1.64782e-40
-3.82343e-35
-3.28871e-31
-2.19717e-28
-8.54684e-27
-5.49601e-26
-2.14462e-25
-7.03041e-26
-1.25223e-11
1.81175e-10
2.65296e-10
2.63709e-09
5.94636e-09
7.67573e-09
7.75104e-09
1.51476e-08
3.78159e-09
1.83774e-08
2.77115e-08
2.57232e-08
3.35658e-08
5.44345e-08
3.25398e-07
6.47761e-07
1.19676e-06
1.61598e-06
9.31991e-07
3.53454e-08
2.64964e-08
3.51644e-08
1.26935e-07
1.15968e-06
4.98875e-06
4.19793e-06
3.47732e-07
2.64284e-06
4.49973e-06
4.42675e-06
1.88432e-07
5.72302e-08
2.23521e-08
1.46917e-08
1.32571e-08
1.31043e-08
1.32571e-08
1.32284e-08
9.42735e-05
0.00315863
0.0051643
0.00411372
0.00169731
2.86671e-05
1.35206e-05
0.00894257
0.0101982
0.00456992
7.25393e-05
5.8376e-05
5.80941e-05
5.85189e-05
0.000288101
0.00258288
0.00267602
0.00266726
0.000626047
5.38552e-07
0.00239191
0.0212777
0.0152568
0.000856915
1.07575e-08
1.01369e-08
1.01369e-08
2.99653e-06
1.24053e-07
0.00204368
0.00276087
0.00276087
0.00259365
0.00023512
4.27141e-05
0.000492769
0.000780619
0.000782915
0.00078291
0.000782917
0.00078249
0.000495567
1.49896e-05
5.56747e-06
3.62622e-05
6.69011e-05
5.70514e-05
0.000464944
0.000714143
0.00069376
0.000143038
7.38333e-06
6.49911e-06
6.71727e-06
5.25803e-05
7.04727e-05
3.43429e-05
1.32268e-05
1.32388e-05
1.30845e-05
1.29422e-05
1.29722e-05
1.29423e-05
1.67907e-05
1.56094e-05
2.70016e-05
1.94283e-05
1.32484e-05
6.85637e-06
1.84448e-06
4.96207e-07
2.96368e-07
1.74342e-07
5.66142e-08
4.83655e-08
4.80661e-08
4.47982e-08
1.15536e-07
1.13649e-07
1.09184e-07
1.01832e-07
9.67856e-08
9.67421e-08
3.42806e-08
2.54404e-08
2.08373e-08
1.23576e-08
6.42333e-09
3.13159e-09
1.8646e-09
1.39027e-09
9.37889e-10
4.1914e-10
3.25396e-10
2.87195e-10
2.76365e-10
2.76365e-10
3.33228e-10
0.000256854
0.00374996
0.00446219
0.00449963
0.00450966
0.00451275
0.00451025
0.00321309
0.000302292
0.000136797
0.000117689
0.000117602
0.000104707
0.000518737
0.000797909
0.000804826
0.000805797
0.000805749
0.000805909
0.000805749
0.000212341
1.85828e-05
2.9855e-05
1.19294e-05
1.7716e-05
0.000395527
0.000916499
0.000944019
0.000297762
9.95937e-06
1.0839e-05
1.02458e-05
7.56935e-06
7.50472e-06
7.55562e-06
5.52199e-05
0.000112337
0.000111772
9.0742e-05
5.36063e-05
0.000124841
0.000200132
0.000119612
0.000199696
0.000262809
0.000261473
6.24728e-05
7.81549e-06
7.80303e-06
0.000113252
0.000215357
0.000215444
0.000215444
0.000215444
0.000155838
1.20888e-05
1.10845e-05
1.13702e-05
1.13999e-05
-4.66003e-320
-4.65904e-320
-4.65904e-320
-4.65805e-320
-4.65805e-320
-4.65805e-320
-4.65805e-320
-4.65805e-320
-4.65805e-320
-4.65706e-320
-4.65706e-320
-4.65607e-320
-4.65607e-320
-4.65607e-320
-4.65509e-320
-4.6541e-320
-4.6541e-320
-4.65311e-320
-4.65212e-320
4.65113e-320
4.65015e-320
4.64916e-320
4.64817e-320
-4.64619e-320
4.64422e-320
4.64224e-320
-4.64026e-320
-4.63829e-320
-4.53369e-309
-2.70187e-288
-7.93182e-270
-1.22057e-244
-3.69053e-226
-1.0826e-208
-3.87842e-193
-2.76426e-178
-6.95452e-164
-5.62542e-150
-1.71568e-136
-2.61331e-123
-1.62898e-110
-3.99134e-98
-1.57054e-86
-8.05345e-76
-1.92325e-64
-1.33034e-55
-5.28604e-48
-1.63474e-41
-3.79021e-36
-3.26976e-32
-2.20659e-29
-8.90465e-28
-6.71318e-27
-3.02666e-26
-1.03649e-26
-8.3906e-13
5.43773e-12
1.00462e-11
1.00196e-10
1.92751e-10
1.40634e-10
2.47941e-10
6.10861e-10
6.04997e-10
4.12938e-10
-1.64258e-09
-4.79469e-10
1.35844e-09
1.21806e-09
1.03295e-09
9.29866e-10
9.9991e-10
4.96128e-08
4.76629e-08
7.75509e-09
1.05669e-09
1.03274e-09
2.49158e-09
2.65162e-09
4.0276e-08
6.37328e-08
4.68415e-08
7.68155e-08
1.38721e-07
2.05443e-07
2.54528e-07
3.54812e-07
3.60619e-07
3.63226e-07
3.63914e-07
3.63226e-07
2.0452e-07
2.45317e-08
2.74367e-08
3.17859e-07
4.69618e-07
4.18611e-06
1.89266e-05
1.7315e-05
1.00129e-05
4.93967e-05
0.000206967
0.000242926
0.000236933
0.000233215
0.000228073
0.000212639
7.29356e-05
1.76636e-05
1.15891e-05
5.30847e-06
7.14475e-07
1.83613e-07
6.59116e-08
2.53077e-08
1.13878e-08
8.9975e-09
1.01369e-08
1.01418e-08
1.05105e-08
1.00839e-08
1.04569e-08
1.53808e-05
7.95858e-05
9.26969e-05
6.13162e-05
4.02778e-05
0.000517369
0.000558036
0.000450578
3.45334e-05
1.24282e-05
0.000257919
0.000781043
0.000764762
0.000749501
0.000748684
0.000169828
5.65463e-05
5.65463e-05
5.63604e-05
5.8539e-05
0.000416701
0.000478608
0.000478608
0.000165405
7.48347e-06
1.36704e-05
1.63635e-05
1.56412e-05
2.22543e-05
4.78003e-05
4.81295e-05
4.77987e-05
2.47509e-05
1.87163e-05
4.5693e-05
4.83626e-05
4.93251e-05
5.00368e-05
5.02536e-05
5.01474e-05
4.62324e-05
8.34476e-06
3.27359e-07
1.27421e-07
6.2823e-08
4.38318e-08
3.89892e-08
2.55572e-08
1.85366e-08
2.19831e-08
4.58177e-07
9.06919e-07
9.38005e-07
9.55101e-07
9.64484e-07
9.67168e-07
9.64484e-07
9.64784e-07
6.59043e-07
1.16583e-07
5.63291e-08
4.44074e-08
6.01804e-09
3.98028e-09
3.65933e-09
1.0194e-09
2.87266e-10
2.76365e-10
1.38837e-07
4.65944e-06
1.47146e-05
1.37305e-05
1.01456e-05
9.42271e-06
1.20739e-05
1.95908e-05
0.000173763
0.00053479
0.000541741
0.000521
0.000422997
0.000104687
4.52885e-05
8.00053e-05
0.000134515
0.000170373
0.000168553
0.000155326
0.00011631
3.63706e-05
4.23715e-06
2.31328e-06
3.85639e-06
9.60956e-05
0.00085039
0.000944019
0.000949336
0.000949933
0.000949933
0.000949933
0.000949725
0.000876072
0.000136034
1.23646e-05
3.2008e-05
4.03997e-05
4.00279e-05
4.03997e-05
4.82145e-05
0.000125804
5.10872e-05
4.42136e-05
4.42136e-05
4.89023e-05
5.61108e-05
3.36221e-05
8.4611e-06
7.87045e-06
2.81387e-05
5.88773e-05
3.98067e-05
3.54712e-05
3.76659e-05
2.07094e-05
1.48753e-05
8.71111e-05
0.000185457
0.000186901
-4.65904e-320
-4.65904e-320
-4.65805e-320
-4.65805e-320
-4.65805e-320
-4.65805e-320
-4.65805e-320
-4.65805e-320
-4.65706e-320
-4.65706e-320
-4.65607e-320
-4.65607e-320
-4.65607e-320
-4.65509e-320
-4.6541e-320
-4.6541e-320
-4.65311e-320
-4.65212e-320
-4.65113e-320
4.65015e-320
4.64817e-320
4.64718e-320
4.64619e-320
-4.64422e-320
4.64224e-320
4.64026e-320
-4.6373e-320
-4.63434e-320
-4.40677e-310
-2.62542e-289
-7.69606e-271
-1.1811e-245
-3.55709e-227
-1.03797e-209
-3.69404e-194
-2.61199e-179
-6.51086e-165
-5.21183e-151
-1.57142e-137
-2.36431e-124
-1.45487e-111
-3.51779e-99
-1.36596e-87
-6.91466e-77
-1.63136e-65
-1.11612e-56
-4.39369e-49
-1.34903e-42
-3.11382e-37
-2.68331e-33
-1.82117e-30
-7.59166e-29
-6.56676e-28
-3.36498e-27
-4.17942e-27
-1.00125e-18
1.8112e-13
4.64595e-13
3.48305e-12
9.66823e-12
1.36531e-11
1.35826e-11
8.20099e-14
1.35815e-11
3.40715e-11
3.6553e-11
1.81571e-11
-8.41942e-11
-3.50857e-11
3.1352e-11
2.26054e-11
2.43414e-11
3.09723e-12
5.75076e-12
1.15272e-11
-4.3596e-11
-3.36722e-11
-1.89368e-10
-1.59854e-10
-9.44588e-11
3.96193e-11
2.91027e-11
2.17024e-11
1.92419e-11
2.12326e-11
2.56665e-09
3.59539e-09
1.38886e-08
2.2721e-08
3.01166e-08
5.20065e-08
7.89105e-08
2.74577e-08
3.78596e-10
3.48021e-09
7.0218e-09
-1.77487e-08
-1.96152e-08
4.67201e-09
3.46913e-09
7.39711e-09
1.48904e-08
1.56103e-08
5.18942e-07
1.9958e-06
3.54968e-06
3.4402e-06
3.04449e-06
2.84863e-06
2.0374e-06
1.30231e-06
1.93124e-06
1.922e-06
1.84566e-06
6.93097e-07
6.8163e-09
6.46226e-09
1.05479e-07
4.95594e-07
5.18809e-07
5.25575e-07
5.22372e-07
1.76705e-07
6.26846e-08
4.32019e-08
2.10563e-08
5.9522e-07
3.06238e-06
1.11035e-05
1.31512e-05
1.09729e-05
1.17505e-05
1.37854e-05
1.92545e-05
3.56875e-05
5.12899e-05
6.18954e-05
0.000103984
0.000103926
0.000100109
9.96281e-05
9.53503e-05
4.00635e-05
2.66806e-05
0.000129549
0.000170526
0.000172438
0.000171276
0.000136124
2.73499e-05
1.07686e-05
4.46031e-05
4.78003e-05
4.8131e-05
4.74516e-05
4.66609e-05
4.6707e-05
2.47752e-05
6.57571e-07
4.56101e-06
4.57765e-05
4.98975e-05
2.74965e-05
9.01764e-07
-1.61272e-09
-1.06415e-09
1.81379e-10
-8.67305e-10
-3.66571e-10
-1.30021e-11
6.49166e-12
3.79049e-12
2.44724e-12
2.82204e-10
3.62919e-09
1.47721e-08
4.18988e-08
6.14307e-07
9.63432e-07
9.29646e-07
8.84321e-07
8.71528e-07
7.26757e-07
1.60921e-07
1.0764e-12
8.96582e-11
3.85577e-10
1.92828e-09
3.0367e-09
2.06124e-09
2.76744e-09
2.38986e-09
-5.93958e-10
5.6083e-10
6.40124e-10
6.8469e-10
8.58199e-10
1.64846e-09
2.62784e-07
4.93701e-06
2.26386e-06
4.24813e-05
0.000250222
0.000189677
1.3846e-05
8.34357e-06
6.06086e-06
1.70358e-06
8.74725e-07
4.49797e-05
7.03552e-05
1.77593e-05
1.56778e-06
5.0059e-07
2.2118e-06
1.04174e-05
1.97865e-05
3.94574e-05
0.000135311
0.000183243
8.52008e-05
2.28948e-06
0.000280574
0.000767887
0.000667602
0.000626273
0.000626273
0.000617161
0.000182132
4.29952e-05
5.63777e-05
7.56043e-05
0.00013268
0.000138155
6.23084e-05
2.0978e-05
1.28899e-05
1.06608e-05
9.22541e-06
8.51607e-06
9.22541e-06
1.18647e-05
9.48558e-05
0.00012351
0.000125396
0.000125768
0.000125454
0.000125485
6.63172e-05
6.56652e-05
-4.65904e-320
-4.65805e-320
-4.65805e-320
-4.65805e-320
-4.65805e-320
-4.65805e-320
-4.65805e-320
-4.65805e-320
-4.65706e-320
-4.65607e-320
-4.65607e-320
-4.65607e-320
-4.65607e-320
-4.6541e-320
-4.6541e-320
-4.65311e-320
-4.65212e-320
-4.65212e-320
-4.65015e-320
4.64916e-320
4.64817e-320
4.64619e-320
4.64422e-320
-4.64224e-320
4.64026e-320
4.63829e-320
-4.63631e-320
-4.63236e-320
-3.49305e-311
-2.07763e-290
-6.07302e-272
-9.28221e-247
-2.78059e-228
-8.06022e-211
-2.8458e-195
-1.99359e-180
-4.91682e-166
-3.88942e-152
-1.15762e-138
-1.71778e-125
-1.0418e-112
-2.48161e-100
-9.49175e-89
-4.73384e-78
-1.10093e-66
-7.43185e-58
-2.89064e-50
-8.7856e-44
-2.0123e-38
-1.72616e-34
-1.17397e-31
-5.03907e-30
-4.9204e-29
-2.83036e-28
-5.99203e-28
-8.42917e-20
3.21831e-15
9.81433e-15
6.29163e-14
2.32782e-13
4.54914e-13
6.04086e-13
7.98129e-13
1.12413e-12
1.44031e-12
1.78754e-12
1.94318e-12
1.83046e-12
3.20448e-13
6.28819e-13
1.0968e-12
8.02151e-13
7.01062e-13
2.56459e-13
5.4667e-13
8.94807e-13
1.78487e-13
-9.74171e-13
-2.11719e-12
-1.39941e-12
-4.73631e-13
-2.14075e-12
-1.55035e-12
-6.32756e-13
-1.07491e-13
-3.87027e-13
9.0398e-13
9.58859e-13
1.41573e-12
2.1316e-12
3.28883e-12
3.80145e-11
3.39469e-10
-2.33778e-11
-1.44262e-10
-1.31359e-10
-7.03289e-11
-1.63734e-10
-3.13051e-10
-5.17427e-10
-1.18188e-09
-1.34537e-09
1.19185e-10
9.52287e-11
6.69905e-11
5.05013e-11
1.44514e-09
3.19671e-09
3.73536e-09
2.827e-09
1.48617e-09
1.24756e-09
2.62731e-09
5.94571e-09
7.47101e-09
6.61697e-09
5.97478e-09
7.26434e-09
1.02238e-08
1.72785e-08
2.62836e-08
3.21885e-08
4.85923e-08
7.23437e-08
6.40231e-08
9.24061e-09
1.85611e-10
2.48959e-10
-1.91054e-09
-1.34692e-08
-7.83475e-09
-3.49371e-09
1.97887e-09
2.7495e-09
3.26137e-09
5.93756e-09
9.95779e-09
3.93877e-07
1.74451e-06
6.67858e-06
9.61841e-06
7.11259e-06
1.22734e-05
2.57581e-05
1.54701e-05
1.01709e-05
1.22085e-05
1.48709e-05
2.0734e-05
2.0019e-05
1.08678e-05
4.51561e-06
5.14048e-06
4.04482e-06
3.35525e-06
3.3501e-06
1.59932e-06
9.1261e-11
7.77431e-11
4.30044e-11
2.4247e-11
7.6169e-12
-8.45605e-11
-1.64359e-10
-3.76843e-11
4.18299e-11
5.86983e-11
1.05002e-12
-1.05084e-11
-1.747e-12
1.55807e-12
1.62832e-12
1.57889e-12
1.43185e-12
1.25275e-12
1.16214e-12
1.11863e-12
1.09701e-12
1.08697e-12
1.08184e-12
1.07812e-12
1.07676e-12
1.0764e-12
1.07638e-12
1.0764e-12
1.0764e-12
1.07644e-12
1.07656e-12
1.0768e-12
1.24055e-12
1.19324e-12
6.31463e-13
-2.00673e-13
-2.7584e-12
-5.81849e-11
-3.80299e-11
3.88967e-12
1.00156e-11
9.75814e-11
1.80046e-10
6.25111e-10
4.65462e-09
1.49848e-06
3.31633e-06
1.22146e-05
1.38357e-05
5.85736e-06
1.29288e-07
1.02156e-07
4.40871e-07
2.02397e-06
4.91679e-06
2.4322e-06
3.42023e-08
1.03395e-06
2.76284e-06
1.24133e-06
1.13175e-08
1.31445e-08
1.58825e-08
2.04614e-08
6.07496e-07
4.21963e-06
2.73742e-05
7.40258e-05
3.68061e-05
4.63421e-05
0.0004052
0.000422021
0.000343343
0.000350033
0.000345366
0.000340169
0.000211479
0.000290188
0.000290188
0.000204145
3.47261e-05
1.2128e-05
1.36885e-05
1.43482e-05
1.66488e-05
2.07014e-05
2.09255e-05
2.20748e-05
2.09592e-05
2.09772e-05
2.17943e-05
7.72504e-05
7.72503e-05
-4.65904e-320
-4.65805e-320
-4.65805e-320
-4.65805e-320
-4.65805e-320
-4.65805e-320
-4.65805e-320
-4.65805e-320
-4.65706e-320
-4.65607e-320
-4.65607e-320
-4.65607e-320
-4.65509e-320
-4.6541e-320
-4.6541e-320
-4.65311e-320
-4.65212e-320
-4.65212e-320
-4.65015e-320
4.64916e-320
4.64817e-320
4.64619e-320
4.64422e-320
-4.64224e-320
4.64026e-320
4.63829e-320
-4.63532e-320
-4.63236e-320
-2.05943e-312
-1.22177e-291
-3.55765e-273
-5.40982e-248
-1.6102e-229
-4.63167e-212
-1.6206e-196
-1.12359e-181
-2.73884e-167
-2.13858e-153
-6.27576e-140
-9.17296e-127
-5.47574e-114
-1.28319e-101
-4.8273e-90
-2.36817e-79
-5.41962e-68
-3.60288e-59
-1.3817e-51
-4.14748e-45
-9.40335e-40
-8.0083e-36
-5.44305e-33
-2.40058e-31
-2.6128e-30
-1.67042e-29
-4.73854e-29
-2.20569e-20
3.36293e-17
9.9531e-17
6.73437e-16
2.52559e-15
5.52583e-15
8.0672e-15
1.10407e-14
1.53736e-14
2.0066e-14
2.37814e-14
3.10607e-14
2.78387e-14
1.10482e-13
3.055e-13
4.70496e-13
5.8332e-13
5.53539e-13
4.76819e-13
5.34591e-13
7.79777e-13
9.9471e-13
9.54203e-13
6.30182e-13
6.09166e-13
6.53089e-13
7.5705e-13
9.08331e-13
9.8856e-13
9.97247e-13
9.42725e-13
4.98417e-13
2.23792e-14
5.53677e-14
2.04132e-14
-2.33286e-14
-2.49604e-14
3.15498e-14
5.70652e-14
-6.44636e-13
-3.25602e-12
-2.5433e-12
-1.71053e-12
1.90752e-13
-9.63831e-13
-9.27564e-12
-1.26061e-11
-9.22343e-12
5.65808e-13
5.2564e-13
6.04162e-12
1.00802e-11
1.95209e-11
2.29779e-11
2.39042e-11
2.30696e-11
1.99282e-11
9.76456e-12
5.11686e-13
2.38267e-12
1.07221e-11
1.00771e-12
4.30883e-13
3.55438e-13
1.76857e-13
2.07551e-13
3.37925e-13
2.01741e-10
3.84989e-10
2.9448e-10
5.28001e-11
9.34242e-12
7.1281e-15
-5.27756e-11
-6.57007e-11
-3.78662e-11
4.85692e-12
6.94582e-12
-6.17201e-10
-8.60034e-10
-8.35872e-10
-3.52837e-10
2.11985e-10
3.47624e-10
5.68503e-10
9.40354e-10
1.24579e-09
1.48704e-07
2.41341e-07
1.33272e-07
1.23759e-07
8.94253e-08
8.23083e-08
1.83828e-08
1.48256e-09
1.04235e-09
6.98681e-10
4.61544e-10
3.06439e-10
2.06143e-10
1.41187e-10
8.26761e-11
6.66079e-11
4.22934e-11
2.42465e-11
1.41603e-11
8.72543e-12
5.79719e-12
4.89546e-12
3.62078e-12
2.90495e-12
2.33824e-12
1.97944e-12
1.79285e-12
1.68853e-12
1.64499e-12
1.62939e-12
1.60649e-12
1.55371e-12
1.47645e-12
1.37893e-12
1.27869e-12
1.20265e-12
1.15152e-12
1.11732e-12
1.10483e-12
1.10874e-12
1.12892e-12
1.16938e-12
1.24442e-12
1.3339e-12
1.43137e-12
1.56185e-12
1.64355e-12
1.64355e-12
1.58689e-12
9.54266e-13
5.22143e-14