/*--------------------------------*- C++ -*----------------------------------*\
| =========                 |                                                 |
| \\      /  F ield         | OpenFOAM: The Open Source CFD Toolbox           |
|  \\    /   O peration     | Version:  2406                                  |
|   \\  /    A nd           | Website:  www.openfoam.com                      |
|    \\/     M anipulation  |                                                 |
\*---------------------------------------------------------------------------*/
FoamFile
{
    version     2.0;
    format      ascii;
    arch        "LSB;label=32;scalar=64";
    class       surfaceScalarField;
    location    "0.2";
    object      alphaPhi0.air;
}
// * * * * * * * * * * * * * * * * * * * * * * * * * * * * * * * * * * * * * //

dimensions      [0 3 -1 0 0 0 0];

oriented        oriented;

internalField   nonuniform List<scalar> 
12225
(
0.261197
2.43245e-06
0.261189
7.5791e-06
0.26118
9.24024e-06
0.261174
5.78526e-06
0.26117
4.21089e-06
0.261164
5.53328e-06
0.261159
5.30748e-06
0.261154
5.06516e-06
0.261148
5.73943e-06
0.261142
5.86527e-06
0.261137
5.55825e-06
0.261132
5.15487e-06
0.261126
5.63795e-06
0.261119
7.00093e-06
0.261111
8.15694e-06
0.261103
7.74113e-06
0.261097
6.40103e-06
0.261091
5.38218e-06
0.261087
4.62512e-06
0.261083
3.40092e-06
0.261081
1.92394e-06
0.261081
6.73576e-07
0.261081
3.29684e-08
0.261081
-1.50829e-07
0.261081
2.10026e-07
0.26108
1.08679e-06
0.261078
1.34892e-06
0.261077
1.10608e-06
0.261076
1.17447e-06
0.261075
1.18791e-06
0.261074
1.09492e-06
0.261073
7.37781e-07
0.261073
-2.28563e-07
0.261074
-1.01751e-06
0.261076
-1.5968e-06
0.261077
-1.59947e-06
0.261078
-1.11637e-06
0.261079
-9.03483e-07
0.26108
-7.62186e-07
0.261081
-4.29808e-07
0.261081
-2.57387e-07
0.261082
-8.10183e-07
0.261084
-1.88984e-06
0.261086
-2.80671e-06
0.261089
-2.96671e-06
0.261091
-2.0713e-06
0.261092
-3.77522e-07
0.261091
1.00085e-06
0.261089
1.31269e-06
0.261089
9.59732e-07
0.261088
5.10111e-07
0.261088
4.04148e-09
0.261089
-6.95595e-07
0.26109
-1.45003e-06
0.261092
-1.97302e-06
0.261094
-2.2254e-06
0.261097
-2.39139e-06
0.261099
-2.34929e-06
0.261101
-1.86331e-06
0.261102
-1.10563e-06
0.261103
-6.05251e-07
0.261103
-5.4104e-07
0.261104
-5.06586e-07
0.261104
-8.98757e-08
0.261103
3.82716e-07
0.261103
4.68718e-07
0.261103
8.35017e-08
0.261103
-1.75558e-07
0.261103
-1.40473e-08
0.261103
2.92231e-07
0.261102
4.13028e-07
0.261102
1.85193e-07
0.261102
-1.98033e-07
0.261103
-4.63851e-07
0.261103
-5.03381e-07
0.261104
-3.70853e-07
0.261104
-2.94123e-07
0.261104
-4.25205e-07
0.261105
-6.96192e-07
0.261106
-8.09118e-07
0.261106
-5.0054e-07
0.261106
1.00983e-07
0.261106
5.51095e-07
0.261105
5.4882e-07
0.261105
1.75338e-07
0.261105
-2.12759e-07
0.261106
-3.15448e-07
0.261106
-6.17567e-08
0.261105
2.11367e-07
0.261105
1.92288e-07
0.261105
-2.17684e-07
0.261106
-7.05259e-07
0.261107
-8.51286e-07
0.261108
-5.86604e-07
0.261108
-2.18431e-07
0.261108
-5.69247e-08
0.261108
-2.40716e-07
0.261109
-5.1508e-07
0.261109
-5.84662e-07
0.26111
-4.62621e-07
0.26111
-3.15658e-07
0.26111
-2.77382e-07
0.261111
-3.08737e-07
0.261111
-2.66432e-07
0.261111
-1.25465e-07
0.261111
2.91154e-08
0.261111
-1.67386e-08
0.261111
-2.65618e-07
0.261112
-4.8556e-07
0.261112
-4.05678e-07
0.261112
-7.95536e-08
0.261112
3.2116e-07
0.261112
3.23637e-07
0.261111
5.17596e-08
0.261112
-3.73571e-07
0.261112
-4.80885e-07
0.261113
-2.14151e-07
0.261112
3.78566e-07
0.261111
7.66747e-07
0.261111
7.15739e-07
0.26111
4.82595e-07
0.26111
2.07822e-07
0.26111
2.30779e-07
0.261109
4.65628e-07
0.261109
7.26838e-07
0.261108
8.23271e-07
0.261107
7.68245e-07
0.261106
6.19106e-07
0.261106
5.53958e-07
0.261105
6.1813e-07
0.261104
7.68685e-07
0.261104
8.67163e-07
0.261103
8.56721e-07
0.261102
7.05656e-07
0.261101
5.5996e-07
0.261101
5.23565e-07
0.2611
6.39043e-07
0.261099
7.92963e-07
0.261099
8.5554e-07
0.261098
7.15287e-07
0.261097
4.24805e-07
0.261097
1.43012e-07
0.261097
2.36858e-08
0.261097
1.26303e-07
0.261097
3.32755e-07
0.261096
4.97157e-07
0.261096
5.25855e-07
0.261095
4.53607e-07
0.261095
3.3609e-07
0.261095
2.19112e-07
0.261095
1.17655e-07
0.261095
-8.48044e-08
0.261095
-2.68724e-07
0.261095
-2.64627e-07
0.261095
-2.04041e-08
0.261095
3.46864e-07
0.261094
5.20372e-07
0.261094
3.08876e-07
0.261094
-1.88652e-07
0.261095
-6.26158e-07
0.261096
-6.92847e-07
0.261096
-4.3313e-07
0.261096
-1.13267e-07
0.261096
1.31997e-08
0.261096
-8.85054e-08
0.261097
-2.343e-07
0.261097
-2.44896e-07
0.261097
-1.45012e-07
0.261097
-1.3744e-07
0.261097
-3.40771e-07
0.261098
-6.37472e-07
0.261099
-7.59999e-07
0.261099
-6.08092e-07
0.2611
-3.39587e-07
0.2611
-2.21394e-07
0.2611
-4.19981e-07
0.261101
-7.72245e-07
0.261102
-1.01628e-06
0.261103
-9.95378e-07
0.261104
-7.8219e-07
0.261105
-5.84698e-07
0.261105
-5.34685e-07
0.261106
-5.83867e-07
0.261106
-5.66053e-07
0.261107
-4.06117e-07
0.261107
-2.08218e-07
0.261107
-5.65182e-08
0.261107
-1.02201e-07
0.261107
-2.83359e-07
0.261108
-4.15356e-07
0.261108
-3.61434e-07
0.261108
-2.06223e-07
0.261108
-9.62375e-08
0.261108
-7.23119e-08
0.261108
-1.56676e-08
0.261108
1.4955e-07
0.261108
4.17562e-07
0.261107
6.56145e-07
0.261107
7.26469e-07
0.261106
5.91534e-07
0.261106
3.89028e-07
0.261105
2.81428e-07
0.261105
3.61573e-07
0.261104
5.66076e-07
0.261104
7.79174e-07
0.261103
9.02637e-07
0.261102
9.19743e-07
0.261101
8.53411e-07
0.2611
7.1539e-07
0.2611
5.1384e-07
0.261099
2.80704e-07
0.261099
1.09137e-07
0.261099
-1.01612e-08
0.261099
-8.03558e-08
0.261099
-1.30231e-07
0.2611
-1.84376e-07
0.2611
-1.78559e-07
0.2611
-2.04335e-08
0.2611
2.49069e-07
0.261099
4.96165e-07
0.261099
5.51143e-07
0.261098
3.54704e-07
0.261098
3.73509e-08
0.261098
-2.99867e-07
0.261099
-5.2601e-07
0.2611
-6.673e-07
0.2611
-7.97886e-07
0.261101
-9.88542e-07
0.261103
-1.19197e-06
0.261104
-1.25345e-06
0.261105
-1.06002e-06
0.261106
-6.7551e-07
0.261106
-3.18891e-07
0.261106
-1.64506e-07
0.261106
-2.21481e-07
0.261107
-3.63896e-07
0.261107
-4.68382e-07
0.261108
-5.36666e-07
0.261108
-6.43215e-07
0.261109
-8.20192e-07
0.26111
-9.91142e-07
0.261111
-1.03581e-06
0.261112
-9.01361e-07
0.261113
-6.53298e-07
0.261113
-4.26241e-07
0.261113
-3.23205e-07
0.261114
-3.60478e-07
0.261114
-4.63731e-07
0.261115
-6.91732e-07
-7.86712e-07
0.261204
-4.63188e-07
0.261212
-3.26505e-07
0.261219
1.57317e-06
0.261222
2.69254e-06
0.261225
1.6622e-06
0.261228
2.03658e-06
0.261231
2.48144e-06
0.261233
3.37161e-06
0.261236
3.19765e-06
0.26124
1.83943e-06
0.261243
2.07087e-06
0.261246
2.41856e-06
0.261249
2.18629e-06
0.261254
1.96679e-06
0.26126
1.95458e-06
0.261266
1.98536e-06
0.26127
2.31721e-06
0.261273
2.27242e-06
0.261276
2.31312e-06
0.261276
3.47177e-06
0.261273
4.73833e-06
0.261269
4.6669e-06
0.261265
3.69078e-06
0.261262
2.65158e-06
0.261261
1.63898e-06
0.261261
1.28288e-06
0.261261
1.4175e-06
0.261261
1.02152e-06
0.261262
4.55829e-07
0.261262
2.87538e-07
0.261263
7.1448e-07
0.261262
1.56621e-06
0.26126
1.90309e-06
0.261257
1.66725e-06
0.261254
1.16588e-06
0.261252
6.90403e-07
0.26125
7.56667e-07
0.261248
1.10482e-06
0.261246
1.48961e-06
0.261244
1.79367e-06
0.261241
2.31069e-06
0.261238
2.75869e-06
0.261233
2.76131e-06
0.261228
2.39374e-06
0.261223
1.85607e-06
0.26122
1.21176e-06
0.261219
5.19842e-07
0.26122
-1.08576e-07
0.261222
-7.61412e-07
0.261225
-1.59971e-06
0.261227
-2.35949e-06
0.26123
-2.58462e-06
0.261231
-2.14756e-06
0.261231
-1.41525e-06
0.26123
-8.11006e-07
0.261228
-4.33948e-07
0.261226
-1.66698e-07
0.261224
-5.78395e-09
0.261222
1.34857e-07
0.26122
3.38576e-07
0.261219
4.64746e-07
0.261219
1.86627e-07
0.261219
-4.74646e-07
0.261219
-9.01185e-07
0.26122
-5.90447e-07
0.261221
1.95701e-07
0.26122
6.66396e-07
0.261219
4.81499e-07
0.261219
-2.06848e-08
0.26122
-2.79496e-07
0.261221
-1.35011e-07
0.261221
8.87749e-08
0.26122
1.25751e-07
0.26122
-1.07833e-07
0.26122
-3.22373e-07
0.26122
-2.99452e-07
0.261219
-9.24154e-08
0.261219
1.82997e-08
0.261219
-2.61814e-07
0.261219
-7.74288e-07
0.261219
-1.1659e-06
0.261221
-1.22191e-06
0.261222
-1.0341e-06
0.261224
-8.25833e-07
0.261224
-7.23391e-07
0.261225
-7.09087e-07
0.261225
-6.94378e-07
0.261226
-5.90283e-07
0.261226
-3.38452e-07
0.261227
1.24192e-08
0.261226
2.97817e-07
0.261225
3.6913e-07
0.261224
2.50101e-07
0.261223
7.86254e-08
0.261223
-3.48397e-08
0.261223
-7.13124e-08
0.261223
-1.65664e-07
0.261223
-3.51786e-07
0.261223
-4.98281e-07
0.261223
-4.78259e-07
0.261223
-3.04693e-07
0.261223
-1.22957e-07
0.261222
-8.51814e-08
0.261222
-2.12116e-07
0.261223
-3.62566e-07
0.261223
-3.7497e-07
0.261223
-2.82323e-07
0.261223
-2.18908e-07
0.261223
-3.32213e-07
0.261223
-5.66427e-07
0.261224
-7.49267e-07
0.261225
-6.96085e-07
0.261226
-4.9541e-07
0.261226
-2.86667e-07
0.261226
-1.43697e-07
0.261225
-4.14125e-08
0.261225
9.05797e-08
0.261225
2.68575e-07
0.261225
5.28498e-07
0.261225
6.48807e-07
0.261225
5.74726e-07
0.261225
3.95278e-07
0.261225
2.97307e-07
0.261225
3.23506e-07
0.261225
5.76839e-07
0.261225
8.4545e-07
0.261225
1.00888e-06
0.261225
1.00483e-06
0.261224
9.50495e-07
0.261224
9.50237e-07
0.261224
1.12489e-06
0.261223
1.42506e-06
0.261222
1.70606e-06
0.261221
1.80155e-06
0.26122
1.68726e-06
0.261219
1.48031e-06
0.261218
1.37198e-06
0.261218
1.46337e-06
0.261217
1.70079e-06
0.261216
1.91159e-06
0.261214
1.97085e-06
0.261212
1.90464e-06
0.26121
1.84906e-06
0.261209
1.92996e-06
0.261207
2.15218e-06
0.261205
2.4013e-06
0.261203
2.46706e-06
0.261201
2.21074e-06
0.2612
1.71908e-06
0.261199
1.23427e-06
0.261198
9.31598e-07
0.261197
8.28406e-07
0.261196
8.58063e-07
0.261195
8.63011e-07
0.261194
7.86549e-07
0.261194
7.0014e-07
0.261194
6.2552e-07
0.261193
4.62633e-07
0.261193
7.3509e-08
0.261193
-5.17651e-07
0.261193
-1.07153e-06
0.261194
-1.32898e-06
0.261195
-1.24535e-06
0.261197
-1.04469e-06
0.261197
-1.00166e-06
0.261198
-1.20041e-06
0.2612
-1.47922e-06
0.261201
-1.59675e-06
0.261202
-1.49661e-06
0.261203
-1.35577e-06
0.261204
-1.38259e-06
0.261205
-1.62013e-06
0.261206
-1.92462e-06
0.261208
-2.12e-06
0.26121
-2.17801e-06
0.261212
-2.24584e-06
0.261214
-2.45344e-06
0.261215
-2.76081e-06
0.261217
-2.95251e-06
0.261219
-2.81547e-06
0.261221
-2.33749e-06
0.261222
-1.73934e-06
0.261223
-1.29264e-06
0.261224
-1.118e-06
0.261224
-1.11617e-06
0.261225
-1.11436e-06
0.261226
-1.02302e-06
0.261227
-9.24397e-07
0.261228
-9.28905e-07
0.261228
-1.00455e-06
0.261229
-9.84302e-07
0.261229
-7.43554e-07
0.26123
-3.38609e-07
0.26123
2.22875e-08
0.261229
1.792e-07
0.261229
1.37957e-07
0.26123
6.11131e-08
0.26123
8.52987e-08
0.261231
3.0373e-07
0.261231
6.00617e-07
0.26123
8.44363e-07
0.26123
9.93854e-07
0.261229
1.10204e-06
0.261228
1.22312e-06
0.261228
1.36228e-06
0.261227
1.48652e-06
0.261226
1.5846e-06
0.261225
1.69674e-06
0.261224
1.87049e-06
0.261223
2.10609e-06
0.261221
2.34811e-06
0.261218
2.53154e-06
0.261216
2.61432e-06
0.261213
2.59984e-06
0.26121
2.47374e-06
0.261208
2.18508e-06
0.261206
1.71439e-06
0.261205
1.15821e-06
0.261204
7.00854e-07
0.261204
4.91544e-07
0.261204
5.21307e-07
0.261204
6.05154e-07
0.261204
5.12143e-07
0.261203
1.5295e-07
0.261203
-3.55489e-07
0.261203
-8.68488e-07
0.261204
-1.3189e-06
0.261205
-1.77775e-06
0.261206
-2.31207e-06
0.261207
-2.83797e-06
0.261209
-3.16253e-06
0.261212
-3.14075e-06
0.261214
-2.79744e-06
0.261217
-2.33574e-06
0.261218
-2.00719e-06
0.26122
-1.93198e-06
0.261221
-2.04171e-06
0.261223
-2.18606e-06
0.261225
-2.27444e-06
0.261226
-2.32827e-06
0.261228
-2.40674e-06
0.261229
-2.50348e-06
0.261231
-2.52671e-06
0.261233
-2.37515e-06
0.261234
-2.02801e-06
0.261235
-1.56204e-06
0.261236
-1.09227e-06
0.261236
-7.0859e-07
0.261236
-3.93032e-07
-3.75371e-07
0.261202
-1.03706e-06
0.261201
6.78719e-07
0.261201
1.60964e-06
0.261202
1.64169e-06
0.261202
1.24109e-06
0.261202
2.34884e-06
0.261203
1.38754e-06
0.261206
5.39944e-07
0.261207
1.40318e-06
0.261207
2.22332e-06
0.261207
2.34943e-06
0.261207
1.92342e-06
0.261208
1.39161e-06
0.261209
1.25162e-06
0.261209
1.60223e-06
0.261209
1.78929e-06
0.26121
1.38641e-06
0.261212
8.72101e-07
0.261214
1.52049e-07
0.261217
-4.86034e-08
0.261222
3.56878e-07
0.261225
1.12561e-06
0.261226
2.46652e-06
0.261226
3.12365e-06
0.261225
2.86504e-06
0.261223
2.54428e-06
0.261222
2.82263e-06
0.26122
2.88671e-06
0.261219
2.14553e-06
0.261218
1.18498e-06
0.261218
5.24078e-07
0.261219
1.98734e-07
0.261221
-1.61402e-09
0.261223
-8.54898e-08
0.261224
-2.3341e-07
0.261226
-6.84493e-07
0.261227
-9.88379e-07
0.261229
-9.29431e-07
0.261232
-7.73234e-07
0.261234
-6.25809e-07
0.261237
-4.07578e-07
0.26124
-6.69554e-08
0.261242
5.28089e-07
0.261243
1.4725e-06
0.261242
2.40374e-06
0.261241
2.81376e-06
0.261238
2.77085e-06
0.261235
2.79802e-06
0.261232
3.03833e-06
0.261227
3.05545e-06
0.261222
2.57084e-06
0.261218
1.85454e-06
0.261214
1.26954e-06
0.261212
7.7747e-07
0.261211
2.71934e-07
0.261211
-2.99927e-07
0.261211
-5.98406e-07
0.261212
-6.7568e-07
0.261213
-7.49968e-07
0.261214
-7.34457e-07
0.261215
-4.47455e-07
0.261215
2.93766e-08
0.261214
1.76577e-07
0.261214
-1.222e-07
0.261213
-3.36959e-07
0.261214
-8.49346e-08
0.261214
3.77543e-07
0.261214
5.1808e-07
0.261214
2.13975e-07
0.261213
-1.78317e-07
0.261214
-3.10127e-07
0.261214
-2.42251e-07
0.261214
-1.3329e-07
0.261214
-1.69396e-07
0.261214
-2.85362e-07
0.261214
-3.87506e-07
0.261215
-4.11715e-07
0.261215
-3.79061e-07
0.261215
-3.89164e-07
0.261215
-5.09562e-07
0.261214
-7.47904e-07
0.261214
-1.04805e-06
0.261215
-1.31813e-06
0.261215
-1.43821e-06
0.261216
-1.31811e-06
0.261216
-1.0002e-06
0.261216
-6.87593e-07
0.261216
-5.7127e-07
0.261216
-6.22855e-07
0.261217
-6.11877e-07
0.261218
-3.49195e-07
0.261218
3.85312e-08
0.261218
2.71038e-07
0.261218
1.80365e-07
0.261218
-1.83336e-07
0.261218
-4.7916e-07
0.261219
-5.68647e-07
0.261219
-5.16921e-07
0.261219
-4.58923e-07
0.261219
-4.43547e-07
0.261219
-4.20408e-07
0.261219
-3.37484e-07
0.261219
-2.44647e-07
0.261219
-2.62767e-07
0.26122
-4.39075e-07
0.26122
-6.62583e-07
0.26122
-7.57967e-07
0.261221
-6.61121e-07
0.261221
-4.99415e-07
0.261221
-4.64063e-07
0.261221
-6.30902e-07
0.261221
-8.5579e-07
0.261221
-9.16095e-07
0.261222
-6.7733e-07
0.261222
-2.41136e-07
0.261221
2.88335e-07
0.261221
6.06205e-07
0.26122
6.8499e-07
0.26122
6.19363e-07
0.26122
5.29198e-07
0.261221
5.06436e-07
0.26122
6.01027e-07
0.26122
7.74045e-07
0.261219
9.51342e-07
0.261219
1.10936e-06
0.261218
1.21563e-06
0.261218
1.30261e-06
0.261218
1.42586e-06
0.261217
1.61543e-06
0.261216
1.84071e-06
0.261215
2.06179e-06
0.261214
2.24953e-06
0.261214
2.39623e-06
0.261213
2.48891e-06
0.261212
2.50425e-06
0.261211
2.43865e-06
0.26121
2.34866e-06
0.261209
2.33475e-06
0.261209
2.47061e-06
0.261208
2.73396e-06
0.261207
3.02039e-06
0.261205
3.22539e-06
0.261204
3.32033e-06
0.261202
3.3505e-06
0.261201
3.37286e-06
0.2612
3.3963e-06
0.261199
3.32173e-06
0.261199
3.01095e-06
0.261198
2.44938e-06
0.261197
1.81774e-06
0.261197
1.39236e-06
0.261196
1.33819e-06
0.261196
1.56587e-06
0.261195
1.76182e-06
0.261194
1.63305e-06
0.261193
1.15393e-06
0.261193
5.16148e-07
0.261194
-7.76307e-08
0.261195
-5.70825e-07
0.261195
-1.02176e-06
0.261196
-1.46345e-06
0.261196
-1.82843e-06
0.261197
-1.98443e-06
0.261198
-1.88602e-06
0.261198
-1.66994e-06
0.261199
-1.57478e-06
0.261199
-1.73331e-06
0.261199
-2.0458e-06
0.2612
-2.29933e-06
0.261201
-2.38269e-06
0.261202
-2.38589e-06
0.261203
-2.50324e-06
0.261204
-2.84391e-06
0.261205
-3.33028e-06
0.261207
-3.77402e-06
0.261209
-4.04159e-06
0.26121
-4.13333e-06
0.261212
-4.12926e-06
0.261213
-4.06417e-06
0.261214
-3.86863e-06
0.261215
-3.44514e-06
0.261216
-2.80822e-06
0.261217
-2.13646e-06
0.261217
-1.66898e-06
0.261218
-1.52752e-06
0.261218
-1.63014e-06
0.261219
-1.7674e-06
0.26122
-1.77454e-06
0.261221
-1.63605e-06
0.261221
-1.43262e-06
0.261221
-1.22175e-06
0.261222
-9.76433e-07
0.261222
-6.46445e-07
0.261222
-2.53551e-07
0.261222
9.95146e-08
0.261222
3.14503e-07
0.261222
3.88832e-07
0.261221
4.32629e-07
0.261221
5.95257e-07
0.261221
9.15528e-07
0.26122
1.31324e-06
0.26122
1.67005e-06
0.261219
1.92008e-06
0.261218
2.07761e-06
0.261217
2.19935e-06
0.261216
2.33246e-06
0.261215
2.50313e-06
0.261214
2.73547e-06
0.261213
3.05214e-06
0.261212
3.44028e-06
0.26121
3.82051e-06
0.261209
4.06864e-06
0.261207
4.08491e-06
0.261206
3.857e-06
0.261205
3.45293e-06
0.261204
2.9558e-06
0.261204
2.41277e-06
0.261203
1.85052e-06
0.261202
1.32672e-06
0.261202
9.40895e-07
0.261202
7.66458e-07
0.261201
7.52397e-07
0.261201
7.00814e-07
0.261201
3.801e-07
0.261201
-3.12239e-07
0.261201
-1.28798e-06
0.261202
-2.32859e-06
0.261204
-3.2307e-06
0.261205
-3.88964e-06
0.261207
-4.31494e-06
0.261208
-4.55902e-06
0.26121
-4.62008e-06
0.261211
-4.45839e-06
0.261213
-4.09205e-06
0.261215
-3.65666e-06
0.261216
-3.34342e-06
0.261218
-3.26953e-06
0.261219
-3.40285e-06
0.26122
-3.6022e-06
0.261221
-3.73424e-06
0.261223
-3.75141e-06
0.261224
-3.67194e-06
0.261225
-3.50853e-06
0.261226
-3.23244e-06
0.261227
-2.80466e-06
0.261227
-2.23473e-06
0.261228
-1.59616e-06
0.261228
-1.01965e-06
0.261228
-4.95035e-07
-3.33192e-07
0.261205
1.02424e-06
0.261205
1.41972e-06
0.261205
1.20379e-06
0.261204
3.00487e-06
0.261204
1.15942e-06
0.261205
1.03738e-06
0.261204
2.0886e-06
0.261203
2.10974e-06
0.261202
2.37176e-06
0.261202
2.06091e-06
0.261203
1.57463e-06
0.261203
1.81621e-06
0.261202
2.21707e-06
0.261201
1.99569e-06
0.261201
1.72185e-06
0.261201
2.22199e-06
0.261199
3.19344e-06
0.261196
3.84867e-06
0.261193
3.26252e-06
0.26119
2.2642e-06
0.261189
1.72594e-06
0.261189
1.14891e-06
0.261191
9.14279e-07
0.261192
1.21781e-06
0.261194
1.49467e-06
0.261195
1.32513e-06
0.261197
1.19432e-06
0.261198
1.25574e-06
0.261199
1.69923e-06
0.261198
2.28826e-06
0.261196
2.70731e-06
0.261192
3.30021e-06
0.261189
3.89775e-06
0.261184
4.32175e-06
0.261179
4.76481e-06
0.261174
4.71905e-06
0.261169
3.90499e-06
0.261165
3.04828e-06
0.261162
2.48942e-06
0.261159
1.76672e-06
0.261158
6.06681e-07
0.261159
-6.2069e-07
0.261161
-1.60906e-06
0.261165
-2.32229e-06
0.26117
-2.80859e-06
0.261176
-3.15598e-06
0.261182
-3.38885e-06
0.261188
-3.38066e-06
0.261194
-2.92374e-06
0.261199
-2.02764e-06
0.261203
-1.09389e-06
0.261205
-5.41677e-07
0.261207
-3.55091e-07
0.261208
-2.88729e-07
0.261208
-2.63171e-07
0.261209
-3.6555e-07
0.261208
-4.1673e-07
0.261208
-3.22175e-07
0.261208
-2.83521e-07
0.261207
-5.04414e-07
0.261208
-7.92984e-07
0.261208
-7.20305e-07
0.261209
-3.44116e-07
0.261209
-1.16134e-07
0.261209
-3.17099e-07
0.26121
-7.05499e-07
0.261211
-9.16329e-07
0.261212
-8.46528e-07
0.261213
-6.68286e-07
0.261213
-5.57622e-07
0.261214
-5.66268e-07
0.261214
-6.62066e-07
0.261215
-7.57612e-07
0.261215
-8.06946e-07
0.261216
-8.45125e-07
0.261217
-9.69731e-07
0.261217
-1.17709e-06
0.261218
-1.30846e-06
0.261219
-1.21308e-06
0.261219
-9.23513e-07
0.261219
-6.35717e-07
0.261219
-5.20874e-07
0.261218
-5.90104e-07
0.261217
-7.10147e-07
0.261217
-7.21796e-07
0.261216
-5.69585e-07
0.261216
-3.63898e-07
0.261216
-2.94876e-07
0.261216
-4.56857e-07
0.261216
-7.16935e-07
0.261216
-8.18597e-07
0.261217
-6.63132e-07
0.261218
-4.06466e-07
0.261218
-3.00585e-07
0.261218
-4.44503e-07
0.261218
-6.61784e-07
0.261219
-7.39538e-07
0.261219
-6.36288e-07
0.261219
-4.73833e-07
0.261219
-4.04048e-07
0.261219
-4.55118e-07
0.261219
-5.38682e-07
0.261219
-5.57427e-07
0.26122
-5.30943e-07
0.26122
-5.53234e-07
0.26122
-6.78038e-07
0.26122
-8.25003e-07
0.26122
-8.63495e-07
0.26122
-7.518e-07
0.26122
-6.03451e-07
0.26122
-5.63824e-07
0.26122
-6.64233e-07
0.26122
-7.53006e-07
0.26122
-6.41679e-07
0.26122
-2.7038e-07
0.26122
2.46806e-07
0.26122
6.46626e-07
0.26122
7.62464e-07
0.26122
6.49117e-07
0.26122
4.9577e-07
0.26122
4.90401e-07
0.26122
7.2457e-07
0.261219
1.10925e-06
0.261219
1.48619e-06
0.261218
1.73093e-06
0.261218
1.81308e-06
0.261217
1.81403e-06
0.261217
1.88045e-06
0.261216
2.11472e-06
0.261216
2.49729e-06
0.261215
2.89485e-06
0.261214
3.15992e-06
0.261213
3.23504e-06
0.261212
3.18338e-06
0.261212
3.12324e-06
0.261211
3.14057e-06
0.26121
3.247e-06
0.261209
3.406e-06
0.261208
3.58268e-06
0.261207
3.77175e-06
0.261206
3.98162e-06
0.261205
4.20219e-06
0.261204
4.38676e-06
0.261203
4.45824e-06
0.261202
4.37005e-06
0.261201
4.1464e-06
0.2612
3.83317e-06
0.2612
3.45401e-06
0.261199
3.02681e-06
0.261199
2.60054e-06
0.261198
2.26086e-06
0.261197
2.07989e-06
0.261197
2.05526e-06
0.261196
2.07642e-06
0.261196
1.93318e-06
0.261196
1.45529e-06
0.261195
6.7181e-07
0.261196
-2.21927e-07
0.261196
-9.96544e-07
0.261197
-1.526e-06
0.261197
-1.83372e-06
0.261197
-2.03683e-06
0.261197
-2.21431e-06
0.261198
-2.33191e-06
0.261198
-2.33717e-06
0.261199
-2.28364e-06
0.2612
-2.31688e-06
0.2612
-2.52336e-06
0.261201
-2.84997e-06
0.261202
-3.17168e-06
0.261203
-3.41749e-06
0.261204
-3.63575e-06
0.261205
-3.94588e-06
0.261206
-4.41144e-06
0.261207
-4.95778e-06
0.261208
-5.41103e-06
0.26121
-5.60591e-06
0.261211
-5.49244e-06
0.261212
-5.14906e-06
0.261213
-4.69552e-06
0.261214
-4.19866e-06
0.261215
-3.66326e-06
0.261216
-3.10579e-06
0.261217
-2.61546e-06
0.261218
-2.32013e-06
0.261218
-2.27161e-06
0.261219
-2.37074e-06
0.261219
-2.41801e-06
0.26122
-2.26187e-06
0.261221
-1.90154e-06
0.261221
-1.46087e-06
0.261221
-1.06466e-06
0.261221
-7.4665e-07
0.261221
-4.54912e-07
0.261221
-1.35454e-07
0.261221
2.13567e-07
0.261221
5.45766e-07
0.261221
8.37725e-07
0.26122
1.12594e-06
0.26122
1.46393e-06
0.261219
1.85498e-06
0.261219
2.23809e-06
0.261218
2.54103e-06
0.261217
2.74972e-06
0.261217
2.92469e-06
0.261216
3.15162e-06
0.261215
3.47878e-06
0.261214
3.89553e-06
0.261212
4.35489e-06
0.261211
4.80066e-06
0.26121
5.16515e-06
0.261208
5.35695e-06
0.261207
5.27785e-06
0.261206
4.88056e-06
0.261205
4.22319e-06
0.261205
3.45991e-06
0.261205
2.76383e-06
0.261204
2.24067e-06
0.261204
1.89592e-06
0.261203
1.66572e-06
0.261202
1.46888e-06
0.261202
1.23158e-06
0.261202
8.82829e-07
0.261202
3.26551e-07
0.261202
-5.41927e-07
0.261202
-1.74544e-06
0.261203
-3.14771e-06
0.261204
-4.46096e-06
0.261206
-5.40019e-06
0.261207
-5.86324e-06
0.261209
-5.94452e-06
0.26121
-5.81918e-06
0.261211
-5.61301e-06
0.261212
-5.36314e-06
0.261214
-5.08171e-06
0.261215
-4.82105e-06
0.261217
-4.6712e-06
0.261218
-4.69298e-06
0.261219
-4.85214e-06
0.261221
-5.02615e-06
0.261222
-5.07811e-06
0.261223
-4.93041e-06
0.261224
-4.58095e-06
0.261225
-4.06758e-06
0.261226
-3.42927e-06
0.261226
-2.70538e-06
0.261227
-1.94991e-06
0.261227
-1.27682e-06
0.261227
-6.86297e-07
-4.622e-07
0.261202
3.0134e-07
0.261203
4.98088e-07
0.261204
1.60957e-07
0.261206
9.60674e-07
0.261205
1.37998e-06
0.261205
1.48329e-06
0.261206
8.89411e-07
0.261208
6.50153e-07
0.261209
6.92788e-07
0.26121
9.582e-07
0.26121
1.91284e-06
0.26121
2.37328e-06
0.261209
2.32497e-06
0.261209
2.25965e-06
0.261209
2.05231e-06
0.26121
1.32445e-06
0.261212
5.27391e-07
0.261216
4.6709e-07
0.261218
8.67648e-07
0.26122
7.44026e-07
0.261221
3.59408e-07
0.261222
3.34861e-07
0.261223
1.75331e-07
0.261224
1.90292e-07
0.261224
6.22693e-07
0.261225
6.32998e-07
0.261226
3.63805e-07
0.261227
2.25029e-07
0.261229
-8.62666e-08
0.261231
-2.38805e-07
0.261234
-4.332e-07
0.261238
-6.03295e-07
0.261243
-5.06685e-07
0.261247
-1.32844e-08
0.261251
1.1568e-06
0.261253
2.42935e-06
0.261254
3.30035e-06
0.261253
4.01243e-06
0.261251
4.63087e-06
0.261248
4.7956e-06
0.261244
4.43785e-06
0.261239
3.75034e-06
0.261235
2.69862e-06
0.261231
1.29445e-06
0.261229
6.24626e-08
0.261226
-7.76025e-07
0.261224
-1.32382e-06
0.261223
-1.84232e-06
0.261222
-2.22495e-06
0.261222
-2.20239e-06
0.261223
-1.87113e-06
0.261224
-1.5495e-06
0.261225
-1.15365e-06
0.261225
-5.25691e-07
0.261224
2.09972e-07
0.261223
7.28058e-07
0.261222
9.61939e-07
0.26122
1.21154e-06
0.261219
1.51855e-06
0.261217
1.49443e-06
0.261215
9.93415e-07
0.261214
4.89155e-07
0.261213
4.48743e-07
0.261212
6.59381e-07
0.261211
5.363e-07
0.261211
-1.20655e-07
0.26121
-8.88959e-07
0.261211
-1.26597e-06
0.261211
-1.21219e-06
0.261212
-1.00305e-06
0.261212
-8.77648e-07
0.261212
-8.34443e-07
0.261212
-7.62309e-07
0.261212
-5.93085e-07
0.261212
-3.88281e-07
0.261211
-2.96633e-07
0.26121
-4.06957e-07
0.26121
-6.54189e-07
0.261209
-8.90047e-07
0.261209
-1.0574e-06
0.26121
-1.18267e-06
0.261211
-1.2856e-06
0.261212
-1.34872e-06
0.261212
-1.34358e-06
0.261213
-1.30234e-06
0.261213
-1.26945e-06
0.261214
-1.23552e-06
0.261215
-1.16897e-06
0.261216
-1.08854e-06
0.261216
-1.04835e-06
0.261216
-1.04929e-06
0.261217
-1.02583e-06
0.261217
-9.3105e-07
0.261218
-8.08754e-07
0.261218
-7.49928e-07
0.261218
-7.75241e-07
0.261218
-8.14095e-07
0.261218
-7.8552e-07
0.261219
-6.79575e-07
0.261219
-5.75507e-07
0.261219
-5.68309e-07
0.261219
-6.79256e-07
0.261219
-8.28272e-07
0.26122
-9.02602e-07
0.26122
-8.55241e-07
0.26122
-7.38625e-07
0.26122
-6.42701e-07
0.26122
-6.1022e-07
0.261219
-6.18962e-07
0.261219
-6.29429e-07
0.26122
-6.26752e-07
0.26122
-6.07371e-07
0.261219
-5.42606e-07
0.261219
-3.87304e-07
0.261219
-1.12e-07
0.261219
2.01293e-07
0.261219
4.59156e-07
0.261219
5.58888e-07
0.261219
5.34565e-07
0.261219
5.21469e-07
0.261219
6.69874e-07
0.261219
1.02833e-06
0.261219
1.50668e-06
0.261218
1.94259e-06
0.261218
2.22037e-06
0.261217
2.32895e-06
0.261217
2.36129e-06
0.261216
2.45325e-06
0.261215
2.70425e-06
0.261215
3.10907e-06
0.261214
3.55221e-06
0.261213
3.87697e-06
0.261213
3.9931e-06
0.261212
3.94248e-06
0.261211
3.86861e-06
0.26121
3.91184e-06
0.261209
4.11275e-06
0.261208
4.39788e-06
0.261207
4.65014e-06
0.261206
4.80326e-06
0.261205
4.88026e-06
0.261205
4.95033e-06
0.261204
5.04681e-06
0.261203
5.11852e-06
0.261203
5.06565e-06
0.261202
4.8193e-06
0.261201
4.39631e-06
0.261201
3.90418e-06
0.261201
3.48552e-06
0.2612
3.20809e-06
0.261199
3.02357e-06
0.261198
2.85105e-06
0.261198
2.64741e-06
0.261197
2.39787e-06
0.261197
2.07458e-06
0.261197
1.60423e-06
0.261197
8.90483e-07
0.261197
-7.30665e-08
0.261197
-1.0841e-06
0.261197
-1.84813e-06
0.261198
-2.23652e-06
0.261198
-2.35037e-06
0.261198
-2.4009e-06
0.261198
-2.525e-06
0.261199
-2.70964e-06
0.261199
-2.89468e-06
0.2612
-3.06863e-06
0.261201
-3.25687e-06
0.261201
-3.50769e-06
0.261202
-3.86004e-06
0.261203
-4.296e-06
0.261204
-4.75677e-06
0.261205
-5.18782e-06
0.261207
-5.59134e-06
0.261208
-6.00297e-06
0.261209
-6.39472e-06
0.26121
-6.64226e-06
0.261211
-6.60189e-06
0.261212
-6.22464e-06
0.261213
-5.60832e-06
0.261213
-4.93353e-06
0.261214
-4.34648e-06
0.261215
-3.8917e-06
0.261216
-3.54154e-06
0.261217
-3.27192e-06
0.261218
-3.09239e-06
0.261218
-3.00236e-06
0.261219
-2.93507e-06
0.261219
-2.76908e-06
0.26122
-2.41338e-06
0.26122
-1.8861e-06
0.26122
-1.30622e-06
0.261221
-8.05849e-07
0.261221
-4.29323e-07
0.261221
-1.22696e-07
0.261221
2.07299e-07
0.26122
6.11195e-07
0.26122
1.07165e-06
0.26122
1.5425e-06
0.261219
1.99402e-06
0.261219
2.41979e-06
0.261218
2.81301e-06
0.261218
3.15521e-06
0.261217
3.43816e-06
0.261216
3.69526e-06
0.261215
3.99838e-06
0.261214
4.41176e-06
0.261213
4.9398e-06
0.261212
5.51353e-06
0.261211
6.02398e-06
0.26121
6.36818e-06
0.261209
6.47233e-06
0.261208
6.28909e-06
0.261207
5.79988e-06
0.261206
5.04138e-06
0.261205
4.1335e-06
0.261205
3.2678e-06
0.261204
2.63623e-06
0.261204
2.32531e-06
0.261203
2.2442e-06
0.261203
2.15624e-06
0.261202
1.83498e-06
0.261202
1.18274e-06
0.261202
2.08331e-07
0.261202
-1.04133e-06
0.261203
-2.50715e-06
0.261204
-4.0655e-06
0.261205
-5.49931e-06
0.261206
-6.58642e-06
0.261207
-7.19553e-06
0.261209
-7.33224e-06
0.26121
-7.1374e-06
0.261211
-6.80783e-06
0.261212
-6.49396e-06
0.261214
-6.25827e-06
0.261215
-6.10057e-06
0.261216
-6.00932e-06
0.261218
-5.99114e-06
0.261219
-6.04634e-06
0.26122
-6.12757e-06
0.261221
-6.13562e-06
0.261222
-5.96405e-06
0.261223
-5.55457e-06
0.261224
-4.91764e-06
0.261224
-4.11194e-06
0.261225
-3.21551e-06
0.261225
-2.30188e-06
0.261226
-1.49415e-06
0.261226
-7.6972e-07
-4.77887e-07
0.2612
-3.03218e-07
0.261201
-4.06566e-07
0.261201
6.25313e-07
0.2612
2.05367e-06
0.2612
1.36914e-06
0.2612
9.85559e-07
0.2612
1.29289e-06
0.261198
2.01411e-06
0.261197
2.20649e-06
0.261196
1.58491e-06
0.261197
7.54106e-07
0.2612
2.77457e-07
0.261202
1.94446e-07
0.261204
3.60725e-07
0.261205
3.36449e-07
0.261206
5.1127e-07
0.261205
1.66167e-06
0.261203
2.68323e-06
0.261201
3.10439e-06
0.261198
3.08074e-06
0.261196
2.6228e-06
0.261194
2.28127e-06
0.261193
1.5498e-06
0.261192
8.47197e-07
0.261192
9.46515e-07
0.261191
1.54191e-06
0.261189
1.73808e-06
0.261188
1.51053e-06
0.261186
1.47973e-06
0.261185
1.71785e-06
0.261182
1.80871e-06
0.26118
1.90926e-06
0.261177
1.97489e-06
0.261176
1.55648e-06
0.261176
9.60268e-07
0.261178
6.22613e-07
0.261181
3.15878e-07
0.261185
-1.98788e-07
0.26119
-6.81163e-07
0.261196
-9.08563e-07
0.261201
-8.80606e-07
0.261206
-6.88357e-07
0.261209
-5.50219e-07
0.261211
-7.50682e-07
0.261212
-1.18452e-06
0.261213
-1.59598e-06
0.261214
-1.82635e-06
0.261214
-1.93144e-06
0.261213
-2.03951e-06
0.261213
-2.10164e-06
0.261214
-1.99362e-06
0.261214
-1.65746e-06
0.261214
-1.1328e-06
0.261214
-5.6029e-07
0.261214
-8.59855e-08
0.261215
1.19406e-07
0.261215
1.11676e-07
0.261217
1.56839e-08
0.261218
9.17792e-08
0.261219
2.84717e-07
0.26122
3.59606e-07
0.26122
3.22161e-07
0.26122
3.27991e-07
0.26122
4.15246e-07
0.261221
4.04149e-07
0.26122
1.83649e-07
0.261219
-1.56859e-07
0.261219
-4.06908e-07
0.261218
-5.80653e-07
0.261218
-8.00971e-07
0.261218
-1.08265e-06
0.261218
-1.3225e-06
0.261219
-1.44627e-06
0.26122
-1.4425e-06
0.261221
-1.2944e-06
0.261222
-9.81367e-07
0.261222
-5.44596e-07
0.261221
-1.32052e-07
0.26122
1.46996e-07
0.261219
1.72481e-07
0.261218
-6.92853e-09
0.261217
-2.36353e-07
0.261216
-4.30933e-07
0.261215
-5.43508e-07
0.261214
-6.70976e-07
0.261214
-9.26018e-07
0.261214
-1.28505e-06
0.261214
-1.57726e-06
0.261215
-1.6604e-06
0.261216
-1.5625e-06
0.261216
-1.42806e-06
0.261216
-1.352e-06
0.261217
-1.29924e-06
0.261217
-1.19624e-06
0.261217
-1.04645e-06
0.261217
-9.25964e-07
0.261218
-8.97225e-07
0.261218
-9.38038e-07
0.261218
-9.65851e-07
0.261218
-9.26066e-07
0.261219
-8.5355e-07
0.261219
-8.37202e-07
0.261219
-9.20504e-07
0.261219
-1.03212e-06
0.261219
-1.03719e-06
0.261219
-8.62724e-07
0.261219
-5.80129e-07
0.261219
-3.48929e-07
0.261219
-2.90391e-07
0.261218
-3.93452e-07
0.261218
-5.39575e-07
0.261218
-5.84686e-07
0.261218
-4.68407e-07
0.261218
-2.32596e-07
0.261218
2.42228e-08
0.261218
2.01875e-07
0.261218
2.69694e-07
0.261218