/*--------------------------------*- C++ -*----------------------------------*\
| =========                 |                                                 |
| \\      /  F ield         | OpenFOAM: The Open Source CFD Toolbox           |
|  \\    /   O peration     | Version:  2406                                  |
|   \\  /    A nd           | Website:  www.openfoam.com                      |
|    \\/     M anipulation  |                                                 |
\*---------------------------------------------------------------------------*/
FoamFile
{
    version     2.0;
    format      ascii;
    arch        "LSB;label=32;scalar=64";
    class       surfaceScalarField;
    location    "0.2";
    object      alphaPhi0.glycerin;
}
// * * * * * * * * * * * * * * * * * * * * * * * * * * * * * * * * * * * * * //

dimensions      [0 3 -1 0 0 0 0];

oriented        oriented;

internalField   nonuniform List<scalar> 
12225
(
0
0
0
0
0
0
0
0
0
0
0
0
0
0
0
0
0
0
0
0
0
0
0
0
0
0
0
0
0
0
0
0
0
0
0
0
0
0
0
0
0
0
0
0
0
0
0
0
0
0
0
0
0
0
-0
0
-3.86709e-307
-4.01422e-309
-2.08442e-286
-2.47004e-288
-5.55749e-268
-7.54109e-270
-7.80414e-243
-1.21625e-244
-2.16453e-224
-3.88588e-226
-5.85581e-207
-1.21453e-208
-1.94496e-191
-4.67392e-193
-1.29151e-176
-3.60636e-178
-3.04021e-162
-9.8931e-164
-2.30866e-148
-8.78062e-150
-6.62241e-135
-2.95292e-136
-9.48653e-122
-4.9758e-123
-5.54739e-109
-3.4354e-110
-1.26814e-96
-9.31196e-98
-4.61304e-85
-4.03677e-86
-2.15571e-74
-2.26295e-75
-4.59863e-63
-5.84402e-64
-2.76669e-54
-4.30838e-55
-9.22824e-47
-1.79081e-47
-2.28421e-40
-5.65865e-41
-3.96862e-35
-1.30173e-35
-2.33355e-31
-1.07293e-31
-9.19336e-29
-6.47183e-29
-1.47381e-27
-1.87801e-27
-3.78123e-27
1.45013e-29
-6.09686e-27
2.28878e-28
-4.8116e-27
-3.92151e-27
1.922e-07
3.24737e-08
3.79568e-07
1.24746e-07
3.09705e-07
6.98665e-08
2.46596e-07
6.31091e-08
2.14857e-07
3.17397e-08
2.06955e-07
7.90178e-09
2.02175e-07
4.77962e-09
1.91069e-07
1.11063e-08
1.78048e-07
1.30211e-08
1.69823e-07
8.22192e-09
1.67245e-07
2.57758e-09
1.67639e-07
-3.92268e-10
1.67334e-07
3.08236e-10
1.64197e-07
3.13201e-09
1.57479e-07
6.71916e-09
1.4775e-07
9.72924e-09
1.36654e-07
1.10958e-08
1.26713e-07
9.94125e-09
1.19728e-07
6.984e-09
1.15867e-07
3.86132e-09
1.14588e-07
1.27904e-09
1.15448e-07
-8.59992e-10
1.1771e-07
-2.26208e-09
1.20084e-07
-2.37511e-09
1.21337e-07
-1.24926e-09
1.20481e-07
8.55669e-10
1.16453e-07
4.02419e-09
1.08714e-07
7.73697e-09
9.75557e-08
1.11579e-08
8.56089e-08
1.19468e-08
7.62539e-08
9.35501e-09
7.13729e-08
4.88634e-09
7.02115e-08
1.1608e-09
7.06133e-08
-4.02883e-10
7.12647e-08
-6.51438e-10
7.21983e-08
-9.33595e-10
7.32057e-08
-1.0075e-09
7.31978e-08
7.95288e-12
7.13703e-08
1.82751e-09
6.84298e-08
2.94048e-09
6.53145e-08
3.11493e-09
6.25284e-08
2.78535e-09
6.00312e-08
2.49591e-09
5.73516e-08
2.67938e-09
5.39835e-08
3.36797e-09
5.00142e-08
3.97263e-09
4.60575e-08
3.95656e-09
4.2567e-08
3.49007e-09
3.94779e-08
3.08908e-09
3.64309e-08
3.04704e-09
3.31108e-08
3.32024e-09
2.93229e-08
3.78787e-09
2.5236e-08
4.08609e-09
2.16774e-08
3.55783e-09
1.95585e-08
2.11875e-09
1.91228e-08
4.3663e-10
1.98369e-08
-7.13709e-10
2.10703e-08
-1.23348e-09
2.25053e-08
-1.43502e-09
2.40551e-08
-1.54984e-09
2.56274e-08
-1.57225e-09
2.70386e-08
-1.41121e-09
2.80139e-08
-9.75332e-10
2.8332e-08
-3.18201e-10
2.79275e-08
4.03851e-10
2.70225e-08
9.03742e-10
2.58539e-08
1.16853e-09
2.45936e-08
1.26029e-09
2.33552e-08
1.23889e-09
2.21702e-08
1.1845e-09
2.10168e-08
1.15339e-09
1.98697e-08
1.14712e-09
1.87313e-08
1.13952e-09
1.76191e-08
1.11241e-09
1.65536e-08
1.06509e-09
1.55413e-08
1.01193e-09
1.45719e-08
9.69377e-10
1.36288e-08
9.42991e-10
1.2697e-08
9.31799e-10
1.17661e-08
9.31076e-10
1.0846e-08
9.19986e-10
9.96161e-09
8.84367e-10
9.1029e-09
8.58705e-10
8.20996e-09
8.93188e-10
7.21219e-09
9.97776e-10
6.05057e-09
1.16158e-09
4.69498e-09
1.3556e-09
3.16279e-09
1.5322e-09
1.51647e-09
1.64631e-09
-1.66434e-10
1.6829e-09
-1.83282e-09
1.66637e-09
-3.45581e-09
1.62298e-09
-5.00322e-09
1.54741e-09
-6.41751e-09
1.41429e-09
-7.66301e-09
1.24549e-09
-8.68458e-09
1.02152e-09
-9.35339e-09
6.68818e-10
-9.61792e-09
2.64535e-10
-9.37615e-09
-2.41777e-10
-8.65695e-09
-7.19313e-10
-7.57953e-09
-1.07749e-09
-6.2191e-09
-1.36043e-09
-4.6109e-09
-1.6082e-09
-2.83285e-09
-1.77805e-09
-1.02739e-09
-1.80546e-09
6.68866e-10
-1.69626e-09
2.08477e-09
-1.4159e-09
3.11404e-09
-1.02927e-09
3.75812e-09
-6.44083e-10
4.06028e-09
-3.02194e-10
4.04727e-09
1.29758e-11
3.814e-09
2.33278e-10
3.34457e-09
4.69428e-10
2.65933e-09
6.85234e-10
1.79236e-09
8.66965e-10
7.89942e-10
1.00241e-09
-3.02427e-10
1.09236e-09
-1.44248e-09
1.14003e-09
-2.59331e-09
1.15082e-09
-3.71294e-09
1.11964e-09
-4.75163e-09
1.03868e-09
-5.64139e-09
8.89758e-10
-6.29296e-09
6.51563e-10
-6.60806e-09
3.15107e-10
-6.49108e-09
-1.16986e-10
-5.98952e-09
-5.01555e-10
-5.5689e-09
-4.20618e-10
-5.58235e-09
1.34525e-11
-5.7162e-09
1.33849e-10
-5.39436e-09
-3.21835e-10
-4.56892e-09
-8.25421e-10
-3.54168e-09
-1.02722e-09
-2.57741e-09
-9.64258e-10
-1.71566e-09
-8.61745e-10
-8.64371e-10
-8.51289e-10
6.04481e-11
-9.24818e-10
1.0963e-09
-1.03585e-09
2.1989e-09
-1.1026e-09
3.26339e-09
-1.06448e-09
4.23644e-09
-9.73032e-10
5.17538e-09
-9.38901e-10
6.2042e-09
-1.02881e-09
7.37164e-09
-1.1675e-09
8.61568e-09
-1.2442e-09
9.85749e-09
-1.24199e-09
1.11208e-08
-1.26332e-09
1.25819e-08
-1.46406e-09
1.44944e-08
-1.91335e-09
1.69795e-08
-2.48474e-09
1.98763e-08
-2.89706e-09
2.29435e-08
-3.06699e-09
2.60448e-08
-3.10119e-09
2.91991e-08
-3.15413e-09
3.2542e-08
-3.34281e-09
3.61451e-08
-3.60292e-09
3.98655e-08
-3.7202e-09
4.33264e-08
-3.46416e-09
4.60353e-08
-2.7097e-09
4.76712e-08
-1.63474e-09
4.84064e-08
-7.34919e-10
4.83413e-08
6.51265e-11
4.68095e-08
1.53177e-09
4.75695e-08
-7.59979e-10
5.30758e-08
-5.50629e-09
6.12439e-08
-8.16862e-09
6.92166e-08
-7.97327e-09
7.47464e-08
-5.53044e-09
7.81817e-08
-3.44075e-09
8.06715e-08
-2.49213e-09
8.24991e-08
-1.82637e-09
8.37821e-08
-1.28232e-09
8.4753e-08
-9.70887e-10
8.62872e-08
-1.5342e-09
8.96391e-08
-3.35181e-09
9.45018e-08
-4.86258e-09
1.00046e-07
-5.54408e-09
1.05151e-07
-5.10521e-09
1.08618e-07
-3.46631e-09
1.09596e-07
-9.78515e-10
1.08352e-07
1.2443e-09
1.06512e-07
1.83983e-09
1.06154e-07
3.58059e-10
1.09442e-07
-3.28806e-09
1.1655e-07
-7.10777e-09
1.26325e-07
-9.77486e-09
1.36453e-07
-1.01281e-08
1.44775e-07
-8.32188e-09
1.50368e-07
-5.59349e-09
1.53401e-07
-3.03261e-09
1.54356e-07
-9.55779e-10
1.53318e-07
1.03803e-09
1.49749e-07
3.56794e-09
1.42906e-07
6.84314e-09
1.32499e-07
1.0407e-08
1.30622e-08
0
0
0
0
0
0
0
0
0
0
0
0
0
0
0
0
0
0
0
0
0
0
0
0
0
0
0
0
0
0
0
0
0
0
0
0
0
0
0
0
0
0
0
0
0
0
0
0
0
0
0
0
0
0
0
0
-3.69743e-308
-3.15633e-310
-2.06499e-287
-2.02116e-289
-5.71538e-269
-6.42921e-271
-8.34695e-244
-1.08161e-245
-2.41223e-225
-3.60874e-227
-6.81307e-208
-1.17919e-209
-2.36739e-192
-4.74964e-194
-1.6483e-177
-3.84009e-179
-4.0784e-163
-1.10504e-164
-3.26429e-149
-1.02966e-150
-9.90004e-136
-3.63714e-137
-1.50478e-122
-6.43926e-124
-9.37559e-110
-4.67123e-111
-2.29473e-97
-1.33008e-98
-8.98896e-86
-6.05412e-87
-4.55721e-75
-3.56113e-76
-1.06517e-63
-9.64017e-65
-7.11172e-55
-7.43951e-56
-2.67836e-47
-3.23112e-48
-7.66997e-41
-1.06461e-41
-1.59936e-35
-2.54691e-36
-1.19484e-31
-2.17896e-32
-6.55907e-29
-1.36463e-29
-1.76865e-27
-4.22886e-28
-1.55385e-27
-4.76524e-28
-1.08144e-27
-5.55246e-28
-2.89159e-27
-3.09741e-27
7.25571e-08
4.9477e-09
1.97108e-07
5.67727e-10
4.43008e-07
1.67293e-08
7.06927e-07
1.20057e-07
6.46546e-07
9.21211e-08
6.20948e-07
3.34999e-08
5.81916e-07
4.38109e-08
5.27464e-07
6.55585e-08
4.82467e-07
5.80186e-08
4.55267e-07
3.51093e-08
4.41927e-07
1.58292e-08
4.34187e-07
7.59802e-09
4.26374e-07
8.23355e-09
4.15658e-07
1.38479e-08
3.99606e-07
2.27697e-08
3.7946e-07
2.98761e-08
3.57672e-07
3.28844e-08
3.38736e-07
2.88776e-08
3.26113e-07
1.96077e-08
3.19096e-07
1.08785e-08
3.1567e-07
4.70552e-09
3.15202e-07
-4.53002e-10
3.17246e-07
-4.19921e-09
3.20087e-07
-4.47767e-09
3.21022e-07
-1.5735e-09
3.17629e-07
4.2483e-09
3.099e-07
1.17532e-08
2.95227e-07
2.24105e-08
2.73112e-07
3.32729e-08
2.48523e-07
3.65352e-08
2.28387e-07
2.94914e-08
2.18241e-07
1.50322e-08
2.16009e-07
3.39235e-09
2.16198e-07
-5.91864e-10
2.164e-07
-8.5294e-10
2.14022e-07
1.44389e-09
2.10576e-07
2.43858e-09
2.05384e-07
5.19996e-09
1.96157e-07
1.10551e-08
1.83889e-07
1.52086e-08
1.71528e-07
1.54758e-08
1.60392e-07
1.39212e-08
1.50562e-07
1.23258e-08
1.41087e-07
1.21546e-08
1.30259e-07
1.41955e-08
1.18171e-07
1.60605e-08
1.07295e-07
1.48332e-08
9.90244e-08
1.17603e-08
9.28674e-08
9.24614e-09
8.74873e-08
8.42711e-09
8.20233e-08
8.78421e-09
7.59388e-08
9.87245e-09
6.92967e-08
1.07282e-08
6.34418e-08
9.41267e-09
6.00037e-08
5.55688e-09
5.96479e-08
7.9241e-10
6.11559e-08
-2.22168e-09
6.31646e-08
-3.24214e-09
6.50648e-08
-3.33517e-09
6.69541e-08
-3.43899e-09
6.87204e-08
-3.33843e-09
7.02385e-08
-2.92918e-09
7.0854e-08
-1.59081e-09
6.9995e-08
5.40733e-10
6.80462e-08
2.35267e-09
6.52573e-08
3.69266e-09
6.19928e-08
4.4331e-09
5.85726e-08
4.68048e-09
5.52521e-08
4.55935e-09
5.21033e-08
4.33328e-09
4.90237e-08
4.23306e-09
4.59071e-08
4.26369e-09
4.27461e-08
4.30048e-09
3.96072e-08
4.25135e-09
3.65606e-08
4.1117e-09
3.36384e-08
3.93405e-09
3.08418e-08
3.76604e-09
2.81729e-08
3.61189e-09
2.56307e-08
3.47397e-09
2.31909e-08
3.37084e-09
2.09177e-08
3.1932e-09
1.89437e-08
2.85843e-09
1.73103e-08
2.49204e-09
1.59339e-08
2.2696e-09
1.47218e-08
2.20988e-09
1.35618e-08
2.32156e-09
1.23774e-08
2.53996e-09
1.11842e-08
2.72542e-09
1.0061e-08
2.7695e-09
9.06992e-09
2.674e-09
8.2083e-09
2.52798e-09
7.43759e-09
2.39368e-09
6.74703e-09
2.23797e-09
6.25663e-09
1.90468e-09
6.0477e-09
1.45426e-09
6.04492e-09
1.02421e-09
6.37361e-09
3.40107e-10
7.36108e-09
-7.22971e-10
8.93112e-09
-1.81185e-09
1.08866e-08
-2.67475e-09
1.30099e-08
-3.20081e-09
1.51491e-08
-3.49964e-09
1.72314e-08
-3.69051e-09
1.91799e-08
-3.72657e-09
2.09534e-08
-3.57895e-09
2.24009e-08
-3.14378e-09
2.31702e-08
-2.18512e-09
2.31206e-08
-9.79699e-10
2.23907e-08
8.58296e-11
2.10232e-08
1.06529e-09
1.92029e-08
1.83327e-09
1.70402e-08
2.39605e-09
1.46472e-08
2.86239e-09
1.19662e-08
3.36624e-09
9.03655e-09
3.79662e-09
5.96425e-09
4.0747e-09
2.82886e-09
4.22775e-09
-3.15259e-10
4.28415e-09
-3.39825e-09
4.23381e-09
-6.36681e-09
4.08819e-09
-9.15728e-09
3.82915e-09
-1.16569e-08
3.38941e-09
-1.36767e-08
2.67132e-09
-1.49684e-08
1.60683e-09
-1.49544e-08
-1.31038e-10
-1.34531e-08
-2.00286e-09
-1.16103e-08
-2.26333e-09
-1.16458e-08
4.88694e-11
-1.28888e-08
1.37688e-09
-1.32368e-08
2.61739e-11
-1.12432e-08
-2.81907e-09
-8.44533e-09
-3.82505e-09
-6.2349e-09
-3.17469e-09
-4.68243e-09
-2.41421e-09
-3.2695e-09
-2.26422e-09
-1.65635e-09
-2.53796e-09
4.15706e-10
-3.08966e-09
2.87446e-09
-3.47399e-09
5.39606e-09
-3.34613e-09
7.83253e-09
-2.93506e-09
1.02959e-08
-2.67588e-09
1.31784e-08
-2.91719e-09
1.65949e-08
-3.34915e-09
2.0304e-08
-3.56472e-09
2.39883e-08
-3.56915e-09
2.74179e-08
-3.62266e-09
3.07887e-08
-4.15645e-09
3.47364e-08
-5.70494e-09
3.98731e-08
-7.61958e-09
4.61079e-08
-9.13189e-09
5.29264e-08
-9.88534e-09
5.99105e-08
-1.00851e-08
6.69184e-08
-9.96334e-09
7.42422e-08
-1.02476e-08
8.2234e-08
-1.09815e-08
9.09793e-08
-1.1672e-08
1.00132e-07
-1.17744e-08
1.08708e-07
-1.07555e-08
1.15427e-07
-8.32151e-09
1.20465e-07
-5.77213e-09
1.24359e-07
-3.82855e-09
1.25252e-07
6.39262e-10
1.28964e-07
-4.47257e-09
1.40057e-07
-1.65994e-08
1.56641e-07
-2.47525e-08
1.72436e-07
-2.37696e-08
1.82142e-07
-1.53078e-08
1.88533e-07
-8.68564e-09
1.96685e-07
-9.38434e-09
2.05516e-07
-1.06066e-08
2.14278e-07
-1.00442e-08
2.22608e-07
-9.30069e-09
2.3159e-07
-1.05166e-08
2.4393e-07
-1.56915e-08
2.59302e-07
-2.02345e-08
2.7601e-07
-2.22525e-08
2.91934e-07
-2.1029e-08
3.04667e-07
-1.6199e-08
3.12466e-07
-8.77833e-09
3.16685e-07
-2.97444e-09
3.19838e-07
-1.31113e-09
3.24862e-07
-4.6645e-09
3.34534e-07
-1.29612e-08
3.50938e-07
-2.35125e-08
3.72398e-07
-3.1235e-08
3.94388e-07
-3.21176e-08
4.12408e-07
-2.63315e-08
4.24576e-07
-1.77578e-08
4.3194e-07
-1.03962e-08
4.35917e-07
-4.93313e-09
4.36745e-07
2.10168e-10
4.32825e-07
7.48748e-09
4.22721e-07
1.69464e-08
4.05884e-07
2.72413e-08
3.40427e-08
0
0
0
0
0
0
0
0
0
0
0
0
0
0
0
0
0
0
0
0
0
0
0
0
0
0
0
0
0
0
0
0
0
0
0
0
0
0
0
0
0
0
0
0
0
0
0
0
0
0
0
0
0
0
-0
0
-3.97411e-309
-4.10371e-311
-2.27283e-288
-2.66328e-290
-6.43934e-270
-8.57044e-272
-9.62199e-245
-1.45582e-246
-2.84359e-226
-4.89468e-228
-8.20866e-209
-1.60858e-210
-2.91391e-193
-6.50446e-195
-2.07193e-178
-5.27085e-180
-5.23479e-164
-1.5182e-165
-4.27775e-150
-1.41479e-151
-1.32473e-136
-4.99709e-138
-2.05705e-123
-8.85048e-125
-1.31058e-110
-6.43102e-112
-3.28487e-98
-1.83788e-99
-1.32033e-86
-8.4193e-88
-6.88627e-76
-5.00148e-77
-1.66079e-64
-1.37281e-65
-1.14792e-55
-1.07904e-56
-4.49079e-48
-4.7974e-49
-1.34054e-41
-1.62757e-42
-2.92227e-36
-4.03781e-37
-2.29012e-32
-3.61653e-33
-1.32317e-29
-2.41159e-30
-3.88053e-28
-8.3028e-29
-7.41734e-28
-1.93185e-28
-1.05751e-27
-3.50516e-28
-3.74201e-27
-4.61796e-28
4.47975e-09
4.67678e-10
4.67674e-09
3.65124e-10
2.1206e-08
2.09081e-10
1.82043e-07
6.59574e-09
3.25096e-07
-3.66281e-09
3.70762e-07
-1.68308e-09
4.8113e-07
4.29866e-09
6.96527e-07
4.65193e-08
6.9741e-07
1.01665e-07
6.68582e-07
6.39387e-08
6.5285e-07
3.15612e-08
6.37088e-07
2.33605e-08
6.19495e-07
2.58268e-08
6.01843e-07
3.14995e-08
5.79593e-07
4.50193e-08
5.57626e-07
5.18439e-08
5.24684e-07
6.58258e-08
4.65092e-07
4.57772e-08
4.41359e-07
2.40339e-08
4.38933e-07
9.70946e-09
4.75496e-07
5.37558e-09
4.73424e-07
1.55886e-09
4.02453e-07
-4.72257e-09
4.0463e-07
-7.21204e-09
4.05105e-07
-2.606e-09
4.72531e-07
4.72644e-09
4.78285e-07
1.30978e-08
4.66208e-07
2.5007e-08
4.32019e-07
4.60718e-08
3.67686e-07
5.83202e-08
3.20468e-07
4.85386e-08
3.25032e-07
1.68137e-08
3.43552e-07
-5.14171e-09
3.60971e-07
-3.83141e-09
3.5467e-07
6.68087e-10
3.29959e-07
5.39571e-09
3.08101e-07
2.98749e-09
2.78967e-07
7.0515e-09
2.38357e-07
1.38323e-08
2.13269e-07
1.06303e-08
1.98531e-07
7.33046e-09
1.83002e-07
5.77526e-09
1.64862e-07
5.96465e-09
1.51589e-07
6.28762e-09
1.39203e-07
7.72112e-09
1.33837e-07
9.8871e-09
1.30644e-07
1.11343e-08
1.24818e-07
1.05338e-08
1.20054e-07
9.47497e-09
1.17818e-07
8.96918e-09
1.20341e-07
7.57133e-09
1.2138e-07
8.72148e-09
1.14303e-07
1.78055e-08
1.03178e-07
1.51903e-08
9.75745e-08
8.86148e-09
9.95786e-08
-4.54129e-10
1.0399e-07
-4.61299e-09
1.06536e-07
-4.47978e-09
1.07071e-07
-3.47692e-09
1.06731e-07
-2.81146e-09
1.07001e-07
-3.13058e-09
1.08224e-07
-3.54779e-09
1.08984e-07
-2.17668e-09
1.07013e-07
1.56433e-09
1.02472e-07
4.85994e-09
9.67472e-08
6.74202e-09
9.05995e-08
7.6439e-09
8.4556e-08
7.76805e-09
7.91654e-08
7.18262e-09
7.46493e-08
6.38179e-09
7.05638e-08
6.03235e-09
6.63244e-08
6.20248e-09
6.18154e-08
6.47364e-09
5.72466e-08
6.53319e-09
5.27777e-08
6.38458e-09
4.84073e-08
6.20306e-09
4.40963e-08
6.05885e-09
3.98717e-08
5.89318e-09
3.57324e-08
5.72929e-09
3.15117e-08
5.71955e-09
2.71828e-08
5.69017e-09
2.3192e-08
5.20135e-09
1.97617e-08
4.50351e-09
1.6728e-08
4.04495e-09
1.41896e-08
3.64598e-09
1.2193e-08
3.34093e-09
1.0603e-08
3.21709e-09
9.37952e-09
3.09295e-09
8.71151e-09
2.70613e-09
8.9025e-09
1.96797e-09
1.01277e-08
1.03455e-09
1.23326e-08
1.50531e-10
1.51718e-08
-5.39269e-10
1.86029e-08
-1.40425e-09
2.16554e-08
-1.50654e-09
2.32289e-08
-5.24366e-10
2.41442e-08
-5.51698e-10
2.58143e-08
-2.28788e-09
2.90023e-08
-4.7687e-09
3.32608e-08
-6.59634e-09
3.72853e-08
-6.85151e-09
4.02873e-08
-6.13211e-09
4.26026e-08
-5.63317e-09
4.48256e-08
-5.56402e-09
4.70692e-08
-5.42868e-09
4.87291e-08
-4.45142e-09
4.92898e-08
-2.51741e-09
4.82477e-08
3.36861e-11
4.55191e-08
2.11798e-09
4.15273e-08
3.86182e-09
3.7422e-08
4.47795e-09
3.3917e-08
4.36935e-09
3.07579e-08
4.37579e-09
2.73219e-08
4.84414e-09
2.3388e-08
5.37845e-09
1.9309e-08
5.50607e-09
1.52527e-08
5.40166e-09
1.12395e-08
5.20741e-09
7.26024e-09
4.94873e-09
3.23844e-09
4.6843e-09
-9.51204e-10
4.4231e-09
-5.42386e-09
4.0887e-09
-9.87884e-09
3.55029e-09
-1.38078e-08
2.68385e-09
-1.66449e-08
1.42914e-09
-1.95515e-08
8.00886e-10
-2.10703e-08
1.47412e-10
-1.85364e-08
-7.52246e-11
-1.25506e-08
-1.0902e-10
-4.83588e-09
-2.87648e-10
-2.54842e-10
-3.78038e-11
9.92964e-10
-2.01363e-14
7.74916e-10
-5.93867e-10
9.24899e-10
-5.63514e-10
1.69959e-09
-7.5638e-10
2.94453e-09
-1.00714e-09
4.52224e-09
-1.3259e-09
5.94331e-09
-4.9604e-12
6.66676e-09
-1.41378e-12
7.17007e-09
-5.52534e-13
8.70515e-09
-3.15481e-12
1.12607e-08
-2.95858e-12
1.38606e-08
-9.26234e-13
1.6577e-08
-4.64386e-13
2.15951e-08
-4.75635e-13
3.00436e-08
-3.82506e-12
4.15351e-08
-6.3492e-12
5.42516e-08
-1.40312e-13
6.05205e-08
-1.5719e-11
6.1179e-08
-4.98329e-12
5.57721e-08
-6.91087e-13
5.16037e-08
-1.56823e-14
5.16919e-08
-6.4138e-12
5.61381e-08
-2.82138e-11
6.30953e-08
-9.89184e-11
7.31319e-08
-1.45155e-10
8.73296e-08
-1.21802e-10
1.12674e-07
-2.91139e-12
1.44401e-07
-2.84131e-13
1.80384e-07
-1.23524e-11
2.18863e-07
-4.07239e-11
2.00494e-07
2.01161e-08
1.87183e-07
7.87801e-09
2.03502e-07
-3.29184e-08
2.14669e-07
-4.96876e-08
1.69572e-07
-1.48249e-08
9.61148e-08
-2.20406e-09
1.22622e-07
-6.5249e-11
1.8366e-07
-2.46886e-12
2.47892e-07
-3.03096e-13
2.91689e-07
-3.88646e-13
3.24855e-07
-1.27289e-12
3.40947e-07
-1.67333e-09
3.61465e-07
-2.19139e-08
3.85597e-07
-4.43666e-08
4.12245e-07
-4.88997e-08
4.38253e-07
-4.70375e-08
4.57418e-07
-3.74172e-08
4.75679e-07
-1.81229e-08
4.94042e-07
-1.14875e-08
5.03708e-07
-8.90442e-09
5.12202e-07
-1.31585e-08
5.2656e-07
-2.73196e-08
5.49162e-07
-4.61143e-08
5.77051e-07
-5.9446e-08
6.07098e-07
-5.76805e-08
6.32545e-07
-5.01851e-08
6.47103e-07
-3.23164e-08
6.55581e-07
-1.88742e-08
6.62776e-07
-1.21275e-08
6.6806e-07
-5.07442e-09
6.68683e-07
6.86444e-09
6.59676e-07
2.5954e-08
6.37479e-07
4.94379e-08
6.4728e-08
0
0
0
0
0
0
0
0
0
0
0
0
0
0
0
0
0
0
0
0
0
0
0
0
0
0
0
0
0
0
0
0
0
0
0
0
0
0
0
0
0
0
0
0
0
0
0
0
0
0
0
0
0
0
0
0
-4.9561e-310
-5.83285e-312
-2.88153e-289
-3.83471e-291
-8.29083e-271
-1.24802e-272
-1.25665e-245
-2.14019e-247
-3.76235e-227
-7.25036e-229
-1.09883e-209
-2.39597e-211
-3.94098e-194
-9.72161e-196
-2.82737e-179
-7.88778e-181
-7.19812e-165
-2.26992e-166
-5.92038e-151
-2.10893e-152
-1.8437e-137
-7.41209e-139
-2.87736e-124
-1.30409e-125
-1.84221e-111
-9.40094e-113
-4.64181e-99
-2.66337e-100
-1.87754e-87
-1.20953e-88
-9.87228e-77
-7.13059e-78
-2.40664e-65
-1.94662e-66
-1.68745e-56
-1.52726e-57
-6.72882e-49
-6.81298e-50
-2.06035e-42
-2.33515e-43
-4.64605e-37
-5.90424e-38
-3.81133e-33
-5.44616e-34
-2.35266e-30
-3.79675e-31
-7.7274e-29
-1.41507e-29
-2.38366e-28
-4.987e-29
-5.04456e-28
-1.20816e-28
-8.82402e-28
-9.52117e-29
4.31764e-10
3.58481e-11
7.50851e-10
4.58066e-11
8.80927e-10
7.96953e-11
6.64532e-09
8.40381e-10
3.20173e-09
-2.24805e-10
1.69517e-09
-1.80867e-10
6.00117e-09
-7.96111e-12
7.16946e-08
1.54469e-09
2.04739e-07
-1.27561e-09
2.96241e-07
1.24292e-09
2.79334e-07
-5.83381e-10
2.70172e-07
-7.79906e-10
3.47447e-07
3.86197e-09
2.5164e-07
3.72122e-09
7.68995e-08
-1.15803e-10
8.15773e-08
-4.59564e-11
2.83404e-07
1.63061e-09
6.46654e-07
1.96155e-08
6.50659e-07
1.39516e-08
6.50839e-07
5.86818e-10
6.3469e-07
2.24448e-08
6.04186e-07
1.51506e-08
5.77806e-07
1.46962e-09
5.80207e-07
-5.34841e-09
5.73606e-07
4.2746e-09
5.55431e-07
2.31888e-08
1.3156e-07
5.54879e-09
3.85304e-08
-2.14089e-10
1.44343e-07
-2.40514e-12
4.85377e-07
2.34113e-08
4.88685e-07
8.54539e-08
1.63674e-07
2.35288e-08
1.61612e-07
-2.01125e-08
1.66477e-07
-4.98409e-08
4.39341e-07
-2.46459e-08
3.47441e-07
5.05967e-10
1.24814e-07
5.66674e-09
4.24028e-08
-3.88528e-09
5.02646e-08
1.37873e-09
4.98978e-08
6.02346e-10
4.57667e-08
-2.79202e-09
3.96193e-08
-3.25412e-09
3.10565e-08
-2.5648e-10
2.21042e-08
2.57952e-09
1.53776e-08
-1.73643e-09
1.22667e-08
-1.2634e-09
1.2379e-08
-1.21449e-09
1.14339e-08
-1.20033e-09
9.80834e-09
-1.41736e-09
8.49316e-09
-1.21751e-09
8.72535e-09
-3.7079e-10
1.29559e-08
-2.78373e-10
4.79134e-08
-9.83905e-12
1.4968e-07
9.91716e-10
1.44029e-07
6.84158e-09
8.117e-08
1.74761e-09
6.21823e-08
1.63127e-10
7.28341e-08
9.01045e-11
7.6951e-08
-8.37128e-11
8.12419e-08
-5.38194e-09
8.0556e-08
-5.4146e-09
7.90753e-08
-1.30938e-09
7.35367e-08
-3.0458e-12
6.39847e-08
-1.44284e-10
5.4821e-08
-3.46392e-10
4.76407e-08
-4.66098e-10
4.27574e-08
-4.65329e-10
4.00145e-08
1.62966e-10
3.78663e-08
1.68284e-10
3.6042e-08
4.57669e-10
3.44413e-08
6.6246e-10
3.323e-08
6.27023e-11
3.23743e-08
2.05769e-11
3.20134e-08
6.8539e-12
3.19521e-08
-4.50524e-10
3.17258e-08
-3.72456e-10
3.09774e-08
-2.81232e-11
2.95343e-08
4.47618e-11
2.78455e-08
1.5062e-10
2.66978e-08
9.38097e-12
2.62763e-08
2.30568e-12
2.60783e-08
-1.3432e-12
2.54219e-08
-1.60919e-10
2.41013e-08
-1.95753e-10
2.14877e-08
-2.17429e-10
1.69598e-08
-1.84048e-10
1.08075e-08
1.7438e-11
4.68126e-09
4.88832e-11
-9.24995e-10
1.16782e-10
-6.40758e-09
1.62703e-10
-1.23922e-08
2.29705e-10
-1.90587e-08
3.30218e-10
-2.63415e-08
4.59907e-10
-3.22892e-08
3.54044e-10
-3.31093e-08
-8.41888e-10
-3.11945e-08
-1.26901e-09
-2.7502e-08
-1.62584e-09
-1.97025e-08
-3.38446e-09
-9.94911e-09
-4.62018e-09
2.82585e-11
-5.09147e-09
1.02143e-08
-5.33805e-09
2.16674e-08
-5.79613e-09
3.39002e-08
-6.09088e-09
4.06996e-08
-4.02368e-09
4.00017e-08
-1.12402e-09
3.67849e-08
-8.94399e-11
3.03084e-08
3.7064e-10
2.31069e-08
4.49618e-10
2.00422e-08
1.54424e-10
2.05077e-08
4.9858e-12
2.23987e-08
-4.93114e-10
2.28389e-08
-7.42519e-12
2.08064e-08
1.07991e-09
1.75568e-08
-3.35698e-10
1.4229e-08
-4.51692e-10
1.13794e-08
-5.0715e-10
9.21675e-09
-5.00846e-10
7.71012e-09
-3.61829e-10
6.468e-09
3.75139e-11
5.23921e-09
4.08205e-10
3.96742e-09
9.84852e-10
2.7557e-09
1.02265e-09
1.6005e-09
-4.32308e-10
7.11853e-10
-3.6767e-10
3.1801e-10
-1.35919e-10
-4.56171e-10
-4.91142e-10
-2.702e-12
-2.24214e-10
-1.2553e-12
-7.78389e-11
-1.20294e-12
-1.18392e-10
-3.11351e-13
-2.93574e-10
8.96872e-14
-4.06509e-11
1.46482e-13
-2.52297e-12
1.33576e-11
-1.58535e-12
1.98707e-11
-2.08315e-12
3.21317e-11
-3.93012e-12
2.16485e-11
-1.84763e-12
3.66889e-12
-1.02753e-12
-9.64131e-15
-4.55354e-13
-4.58431e-14
-4.68696e-13
-5.50403e-14
-1.89006e-13
-2.02787e-14
-3.34499e-12
5.21707e-14
-3.04019e-12
1.42487e-13
-8.657e-13
2.14885e-13
-2.52855e-13
2.18086e-13
-2.62038e-14
1.69001e-13
-3.17537e-12
1.30858e-13
-5.54805e-12
1.16926e-13
-1.23149e-13
1.41878e-13
-1.6299e-11
1.62997e-13
-5.09153e-12
1.90094e-13
-7.18785e-13
1.69189e-13
4.77008e-15
1.28322e-13
-6.37353e-12
1.5122e-13
-2.82373e-11
2.90563e-13
-9.45441e-11
5.12384e-13
-1.54799e-10
5.17347e-13
-1.22724e-10
2.5224e-13
-2.90419e-12
2.16768e-13
-5.25395e-13
2.54169e-13
-1.26665e-11
4.95041e-13
-4.02639e-11
2.01207e-08
-2.5411e-12
2.75861e-07
-5.04536e-10
3.01271e-07
-4.71202e-11
1.07465e-07
-2.7855e-12
2.2481e-09
1.04659e-11
4.79352e-11
-3.4923e-12
1.35855e-12
-1.88213e-11
1.5442e-12
-2.74221e-12
1.66205e-12
-5.07225e-13
1.81029e-12
-6.24589e-13
2.34868e-12
-1.89756e-12
8.32662e-08
-1.86466e-10
3.87594e-07
-4.08056e-11
4.30364e-07
-1.56066e-12
3.69047e-07
-3.23204e-12
2.92945e-07
-8.20168e-11
1.31582e-07
-1.15644e-10
1.64275e-07
-7.77393e-11
3.7236e-07
-1.82243e-11
6.49574e-07
-3.24172e-13
6.97331e-07
-1.07979e-12
7.23854e-07
-1.67931e-08
6.89666e-07
-5.5577e-08
3.89041e-07
-5.34136e-08
4.22602e-07
-1.81016e-08
6.09324e-07
-7.74428e-09
7.52077e-07
-3.76224e-10
8.03052e-07
-5.55491e-13
8.21565e-07
-1.63374e-08
8.32514e-07
-1.65033e-08
8.38019e-07
5.73217e-10
8.32694e-07
3.12791e-08
7.92456e-07
8.96759e-08
1.15642e-07
0
0
0
0
0
0
0
0
0
0
0
0
0
0
0
0
0
0
0
0
0
0
0
0
0
0
0
0
0
0
0
0
0
0
0
0
0
0
0
0
0
0
0
0
0
0
0
0
0
0
0
0
0
0
0
0
-6.57672e-311
-8.1549e-313
-3.86835e-290
-5.40316e-292
-1.12475e-271
-1.76958e-273
-1.72069e-246
-3.04896e-248
-5.19298e-228
-1.0361e-229
-1.52676e-210
-3.42881e-212
-5.50476e-195
-1.39094e-196
-3.9648e-180
-1.12652e-181
-1.01201e-165
-3.23104e-167
-8.335e-152
-2.98767e-153
-2.59634e-138
-1.04381e-139
-4.04933e-125
-1.82375e-126
-2.58918e-112
-1.30462e-113
-6.51355e-100
-3.66631e-101
-2.631e-88
-1.65159e-89
-1.38279e-77
-9.66335e-79
-3.37534e-66
-2.62094e-67
-2.37651e-57
-2.04646e-58
-9.55637e-50
-9.10835e-51
-2.9685e-43
-3.1258e-44
-6.8465e-38
-7.95129e-39
-5.80518e-34
-7.42426e-35
-3.76379e-31
-5.2939e-32
-1.34619e-29
-2.07944e-30
-5.75472e-29
-9.75002e-30
-1.59007e-28
-2.94681e-29
-2.36667e-28
-2.0605e-29
3.35849e-11
2.2061e-12
7.56151e-11
3.80469e-12
1.48059e-10
7.32902e-12
9.25498e-10
6.33215e-11
6.93437e-10
6.93587e-12
5.15485e-10
-3.32547e-12
5.0403e-10
3.28818e-12
1.86447e-09
1.83752e-10
6.54887e-10
-6.72162e-11
1.7173e-09
1.81083e-10
1.11654e-09
1.57781e-11
3.89525e-10
-5.56727e-11
1.15849e-09
1.9252e-10
1.83449e-10
-2.63439e-10
5.86967e-11
-1.05215e-11
8.13771e-12
-1.13097e-11
1.6558e-09
-2.96329e-11
4.06427e-08
-1.19546e-10
4.80665e-08
7.74507e-11
3.87423e-08
1.27517e-10
6.00388e-08
-4.44808e-11
2.89444e-07
1.10434e-10
3.33999e-07
1.8738e-09
1.32175e-07
-5.08088e-11
1.36542e-08
-9.84922e-11
4.35628e-09
1.71637e-11
2.29167e-10
2.41775e-11
7.32862e-12
2.10123e-12
8.7843e-13
-2.02078e-12
2.34063e-08
-6.01047e-13
5.67114e-07
-4.9495e-09
7.10507e-07
2.5369e-08
7.33449e-07
-7.82698e-10
9.50788e-08
-1.26364e-08
1.30193e-09
-5.8493e-09
8.20213e-09
-1.09627e-09
1.38018e-08
-7.19512e-11
1.92334e-07
1.01963e-08
1.60659e-07
2.75925e-08
6.37941e-08
1.50585e-09
-9.7792e-09
-1.24018e-08
-3.71058e-09
-3.87001e-08
4.19419e-09
-1.73946e-08
6.55786e-09
-1.1973e-10
3.94871e-08
2.74744e-09
1.76725e-08
3.0938e-09
1.56646e-09
4.30077e-10
2.53055e-09
-2.22085e-11
3.77061e-09
8.19429e-10
5.02285e-09
-1.07466e-09
2.61287e-09
-9.6905e-11
1.4273e-09
-7.38282e-11
1.51184e-09
-3.11266e-10
5.36479e-09
-4.97537e-10
1.84404e-08
-4.7022e-10
2.72187e-08
-2.09261e-09
1.93404e-08
6.19822e-09
4.60571e-09
-3.41422e-09
6.19195e-10
3.39474e-11
1.86437e-09
-6.28189e-09
3.63584e-09
-5.97214e-09
2.67933e-09
-5.06268e-10
1.07984e-09
-1.27087e-10
5.42375e-10
-4.09915e-11
3.27923e-10
1.47595e-10
2.0841e-10
-2.98803e-11
6.75329e-11
-9.02449e-11
2.79332e-11
-4.73778e-11
3.05408e-11
-1.16699e-10
3.08395e-11
-1.86717e-11
2.19166e-11
-6.37206e-13
1.7021e-11
-7.35526e-13
1.72455e-11
6.93043e-13
1.42308e-11
-2.19372e-13
3.18007e-11
1.31425e-12
3.72058e-11
-1.12514e-12
2.42581e-11
-1.80274e-12
1.31938e-11
-3.21297e-13
8.60232e-12
-2.85136e-13
8.25761e-12
2.7838e-13
9.07707e-12
-3.09308e-13
6.48763e-12
-2.96376e-13
3.98514e-11
-3.74007e-11
8.95035e-11
-9.79636e-11
1.59037e-10
-8.48817e-11
1.83635e-10
-1.86919e-12
1.14894e-10
-1.45999e-11
5.97317e-11
-3.79803e-12
3.27858e-11
4.27537e-12
2.92325e-11
3.9011e-12
2.51738e-11
4.98582e-12
1.55804e-11
4.28511e-12
-2.65354e-12
5.43061e-13
-1.12901e-10
-1.15795e-12
-1.85622e-09
-5.9508e-11
-2.31347e-09
-4.87088e-11
-1.71821e-09
-1.77422e-10
-1.4963e-09
-2.00378e-10
-1.49353e-09
-1.48655e-10
-1.59189e-09
-1.17868e-10
-1.94143e-09
-3.01424e-10
-1.93999e-09
-9.95532e-10
-1.18149e-09
-1.87057e-09
-5.09107e-10
-4.80182e-10
-6.27339e-10
-1.11563e-11
-4.77431e-10
-3.25042e-14
-4.56669e-10
8.25843e-11
-7.62014e-10
-2.7294e-10
-4.83553e-10
-2.98427e-12
-2.04647e-10
-1.11889e-10
-3.04137e-11
-6.50105e-10
4.67915e-12
-2.72142e-10
7.3365e-12
-5.23425e-12
4.03763e-12
-2.7011e-13
5.23216e-12
-1.89969e-13
1.11027e-11
1.18369e-13
1.13213e-11
-3.06099e-13
1.1646e-11
-1.01062e-12
1.71859e-11
-9.10434e-12
2.64457e-11
-2.14914e-11
4.70734e-11
-5.80019e-11
9.38867e-11
-1.32045e-10
2.69364e-10
-1.02757e-10
7.48288e-10
-1.05189e-10
1.38768e-09
-1.00544e-10
2.29572e-09
-2.53709e-11
7.85413e-09
-3.14377e-13
8.61491e-09
-4.69859e-10
1.006e-08
-1.2289e-09
2.5957e-09
-1.81937e-09
-1.3623e-10
-2.04707e-09
1.33053e-10
-1.64189e-09
4.70703e-11
-4.71909e-10
1.06979e-10
-4.73204e-11
1.07638e-10
-8.42554e-12
2.17563e-10
-2.64174e-12
3.08197e-10
-8.32495e-12
3.09424e-10
-2.09124e-10
4.36482e-10
-6.187e-11
7.91356e-10
3.82041e-11
6.27638e-10
6.18615e-11
1.3669e-10
6.79639e-11
4.57937e-11
5.2399e-11
3.48291e-11
1.08645e-11
9.18265e-11
-5.67371e-11
4.89424e-09
-2.75311e-11
4.76421e-09
-3.55564e-11
4.49151e-09
-3.89161e-11
1.95259e-09
-3.55519e-11
1.6084e-10
-1.38236e-12
1.61639e-10
-1.60467e-12
1.60918e-10
7.252e-13
1.33462e-08
7.76787e-11
1.34846e-08
1.73959e-10
1.33823e-08
2.68985e-10
1.31707e-08
3.49576e-10
1.0712e-09
2.53559e-10
8.23928e-11
4.23162e-11
1.83163e-09
3.19384e-10
1.85559e-09
2.48961e-10
1.71457e-09
3.52613e-10
2.54836e-10
2.65322e-10
2.02747e-11
-2.72776e-10
5.3675e-12
-3.44088e-11
1.20462e-12
-1.3986e-12
4.45552e-12
4.44021e-12
5.88619e-11
-9.24901e-12
2.4104e-11
-8.97177e-12
-1.12962e-11
-4.59521e-11
2.29224e-11
-2.94846e-11
4.69417e-11
-1.42869e-11
9.9787e-11
6.41349e-12
4.2461e-11
-4.49418e-11
1.0825e-11
-9.32424e-12
5.60157e-12
3.48378e-12
4.69824e-12
-2.48331e-12
5.46e-12
-8.29332e-11
6.38536e-12
-1.20961e-10
6.31146e-12
-7.62046e-11
5.48323e-12
-1.7576e-11
5.20553e-12
-2.03739e-13
6.01398e-12
-2.1009e-12
1.64447e-07
-7.07683e-11
3.61672e-07
-5.50685e-12
1.8888e-07
-7.76537e-13
8.10908e-09
-2.12453e-11
3.9248e-10
-4.48926e-11
1.32428e-11
-3.90703e-12
1.19953e-11
-6.20969e-12
5.97187e-07
-1.24499e-10
7.12999e-07
-5.83774e-11
3.76042e-07
-4.28195e-13
2.67621e-07
1.29985e-10
5.80254e-07
1.78919e-08
1.12602e-07
0
0
0
0
0
0
0
0
0
0
0
0
0
0
0
0
0
0
0
0
0
0
0
0
0
0
0
0
0
0
0
0
0
0
0
0
0
0
0
0
0
0
0
0
0
0
0
0
0
0
0
0
0
0
-0
0
-8.64661e-312
-1.06404e-313
-5.12563e-291
-7.08173e-293
-1.5003e-272
-2.32644e-274
-2.30784e-247
-4.01458e-249
-6.99437e-229
-1.36416e-230
-2.0624e-211
-4.50702e-213
-7.44817e-196
-1.82237e-197
-5.36665e-181
-1.46887e-182
-1.36876e-166
-4.1867e-168
-1.12525e-152
-3.8422e-154
-3.49567e-139
-1.33081e-140
-5.43366e-126
-2.30328e-127
-3.46133e-113
-1.63125e-114
-8.67448e-101
-4.53782e-102
-3.49177e-89
-2.02402e-90
-1.83044e-78
-1.17345e-79
-4.46246e-67
-3.15737e-68
-3.14414e-58
-2.44971e-59
-1.2686e-50
-1.08572e-51
-3.96809e-44
-3.72005e-45
-9.25909e-39
-9.47893e-40
-7.99025e-35
-8.90095e-36
-5.32673e-32
-6.43085e-33
-2.01823e-30
-2.62831e-31
-1.09655e-29
-1.53173e-30
-3.71636e-29
-5.53217e-30
-5.46625e-29
-3.81305e-30
2.10437e-12
1.01589e-13
5.69063e-12
2.20714e-13
1.25697e-11
4.52678e-13
7.18199e-11
4.08154e-12
7.71981e-11
1.50577e-12
7.3434e-11
3.9671e-13
7.61599e-11
5.36497e-13
2.50827e-10
9.1639e-12
1.83211e-10
4.41571e-13
3.54841e-10
9.44661e-12
3.67926e-10
2.60204e-12
3.14062e-10