/*--------------------------------*- C++ -*----------------------------------*\
| =========                 |                                                 |
| \\      /  F ield         | OpenFOAM: The Open Source CFD Toolbox           |
|  \\    /   O peration     | Version:  2406                                  |
|   \\  /    A nd           | Website:  www.openfoam.com                      |
|    \\/     M anipulation  |                                                 |
\*---------------------------------------------------------------------------*/
FoamFile
{
    version     2.0;
    format      ascii;
    arch        "LSB;label=32;scalar=64";
    class       volScalarField;
    location    "0.2";
    object      p;
}
// * * * * * * * * * * * * * * * * * * * * * * * * * * * * * * * * * * * * * //

dimensions      [1 -1 -2 0 0 0 0];

internalField   nonuniform List<scalar> 
6250
(
3738.83
2854.41
3367.49
3761.86
3745.71
3612.98
3555.64
3559.68
3564.37
3551.39
3531.58
3514.42
3500.28
3486.48
3471.91
3456.94
3442.06
3427.34
3412.65
3397.92
3383.17
3368.42
3353.68
3338.94
3324.2
3309.46
3294.72
3279.97
3265.23
3250.49
3235.75
3221.01
3206.27
3191.53
3176.78
3162.04
3147.3
3132.56
3117.82
3103.08
3088.34
3073.6
3058.86
3044.11
3029.37
3014.62
2999.89
2985.15
2970.4
2955.66
2940.92
2926.17
2911.43
2896.69
2881.95
2867.21
2852.47
2837.73
2822.99
2808.25
2793.5
2778.76
2764.02
2749.28
2734.54
2719.8
2705.06
2690.31
2675.57
2660.83
2646.09
2631.35
2616.61
2601.86
2587.12
2572.38
2557.64
2542.9
2528.16
2513.41
2498.67
2483.93
2469.19
2454.44
2439.71
2424.97
2410.23
2395.48
2380.74
2366
2351.26
2336.52
2321.78
2307.04
2292.29
2277.55
2262.81
2248.07
2233.33
2218.59
2203.85
2189.1
2174.36
2159.62
2144.88
2130.14
2115.4
2100.66
2085.92
2071.17
2056.43
2041.69
2026.95
2012.21
1997.47
1982.73
1967.99
1953.24
1938.5
1923.76
1909.01
1894.28
1879.54
1864.8
1850.05
1835.31
1820.57
1805.82
1791.08
1776.34
1761.6
1746.86
1732.11
1717.37
1702.63
1687.89
1673.15
1658.41
1643.66
1628.92
1614.18
1599.44
1584.7
1569.95
1555.21
1540.47
1525.73
1510.99
1496.25
1481.51
1466.76
1452.02
1437.28
1422.54
1407.79
1393.05
1378.31
1363.57
1348.83
1334.09
1319.35
1304.6
1289.86
1275.11
1260.37
1245.63
1230.9
1216.16
1201.42
1186.68
1171.94
1157.19
1142.45
1127.71
1112.96
1098.22
1083.49
1068.75
1054.02
1039.28
1024.53
1009.79
995.044
980.299
965.555
950.813
936.073
921.333
906.594
891.855
877.114
862.37
847.625
832.877
818.13
803.384
788.64
773.898
759.157
744.416
729.676
714.937
700.197
685.456
670.714
655.971
641.229
626.486
611.745
597.005
582.266
567.527
552.79
538.053
523.317
508.58
493.844
479.108
464.371
449.635
434.898
420.159
405.417
390.674
375.929
361.18
346.429
331.675
316.919
302.162
287.406
272.65
257.896
243.144
228.396
213.651
198.909
184.171
169.435
154.702
139.969
125.236
110.504
95.7716
81.0384
66.3046
51.5702
36.8356
22.1009
7.36712
3738.81
2854.37
3367.47
3761.86
3745.71
3612.97
3555.62
3559.67
3564.37
3551.38
3531.58
3514.43
3500.29
3486.47
3471.89
3456.94
3442.07
3427.36
3412.66
3397.94
3383.19
3368.43
3353.68
3338.94
3324.19
3309.44
3294.71
3279.97
3265.23
3250.49
3235.75
3221.01
3206.27
3191.53
3176.79
3162.04
3147.3
3132.56
3117.82
3103.08
3088.33
3073.59
3058.85
3044.11
3029.37
3014.63
2999.88
2985.14
2970.4
2955.66
2940.92
2926.18
2911.44
2896.7
2881.95
2867.21
2852.47
2837.73
2822.99
2808.24
2793.5
2778.76
2764.02
2749.28
2734.53
2719.79
2705.05
2690.31
2675.57
2660.83
2646.09
2631.35
2616.6
2601.86
2587.12
2572.38
2557.64
2542.9
2528.16
2513.42
2498.67
2483.93
2469.19
2454.44
2439.71
2424.97
2410.23
2395.48
2380.74
2366
2351.26
2336.52
2321.78
2307.03
2292.29
2277.55
2262.81
2248.07
2233.33
2218.59
2203.85
2189.1
2174.36
2159.62
2144.88
2130.14
2115.4
2100.66
2085.92
2071.17
2056.43
2041.69
2026.95
2012.21
1997.47
1982.73
1967.99
1953.24
1938.5
1923.76
1909.02
1894.28
1879.54
1864.79
1850.05
1835.31
1820.57
1805.82
1791.08
1776.34
1761.6
1746.86
1732.12
1717.37
1702.63
1687.89
1673.15
1658.41
1643.67
1628.92
1614.18
1599.44
1584.7
1569.96
1555.21
1540.47
1525.73
1510.99
1496.25
1481.51
1466.77
1452.02
1437.28
1422.54
1407.79
1393.05
1378.31
1363.57
1348.83
1334.09
1319.35
1304.6
1289.86
1275.11
1260.37
1245.63
1230.9
1216.16
1201.42
1186.68
1171.94
1157.19
1142.45
1127.7
1112.96
1098.22
1083.49
1068.75
1054.02
1039.28
1024.54
1009.79
995.044
980.298
965.554
950.812
936.073
921.335
906.596
891.856
877.114
862.37
847.624
832.877
818.129
803.383
788.638
773.896
759.156
744.417
729.678
714.938
700.197
685.456
670.713
655.971
641.228
626.486
611.745
597.005
582.267
567.529
552.791
538.054
523.317
508.581
493.844
479.108
464.371
449.634
434.898
420.16
405.419
390.676
375.93
361.181
346.429
331.676
316.92
302.163
287.405
272.648
257.894
243.143
228.395
213.65
198.909
184.17
169.435
154.701
139.969
125.237
110.505
95.7722
81.0387
66.3047
51.5703
36.8356
22.1012
7.36695
3738.81
2854.38
3367.48
3761.86
3745.72
3612.98
3555.63
3559.66
3564.36
3551.39
3531.59
3514.43
3500.28
3486.47
3471.89
3456.94
3442.07
3427.35
3412.66
3397.93
3383.17
3368.42
3353.68
3338.94
3324.2
3309.45
3294.71
3279.97
3265.23
3250.49
3235.75
3221.01
3206.26
3191.53
3176.79
3162.04
3147.3
3132.56
3117.82
3103.08
3088.34
3073.59
3058.85
3044.11
3029.37
3014.63
2999.89
2985.15
2970.4
2955.66
2940.92
2926.18
2911.44
2896.69
2881.95
2867.21
2852.47
2837.73
2822.99
2808.24
2793.5
2778.76
2764.02
2749.28
2734.54
2719.79
2705.05
2690.31
2675.57
2660.83
2646.09
2631.35
2616.6
2601.86
2587.12
2572.38
2557.64
2542.9
2528.16
2513.41
2498.67
2483.93
2469.19
2454.45
2439.71
2424.97
2410.22
2395.48
2380.74
2366
2351.26
2336.52
2321.78
2307.03
2292.29
2277.55
2262.81
2248.07
2233.33
2218.59
2203.84
2189.1
2174.36
2159.62
2144.88
2130.14
2115.4
2100.66
2085.92
2071.17
2056.43
2041.69
2026.95
2012.21
1997.47
1982.73
1967.98
1953.24
1938.5
1923.76
1909.02
1894.28
1879.54
1864.79
1850.05
1835.31
1820.57
1805.83
1791.08
1776.34
1761.6
1746.86
1732.12
1717.37
1702.63
1687.89
1673.15
1658.41
1643.67
1628.92
1614.18
1599.44
1584.7
1569.96
1555.21
1540.47
1525.73
1510.99
1496.25
1481.51
1466.77
1452.02
1437.28
1422.53
1407.79
1393.05
1378.31
1363.57
1348.83
1334.09
1319.35
1304.6
1289.86
1275.11
1260.37
1245.63
1230.9
1216.16
1201.42
1186.68
1171.94
1157.19
1142.45
1127.7
1112.96
1098.23
1083.49
1068.75
1054.02
1039.28
1024.53
1009.79
995.043
980.297
965.553
950.812
936.073
921.336
906.597
891.857
877.115
862.37
847.623
832.876
818.129
803.383
788.639
773.897
759.157
744.418
729.678
714.938
700.198
685.456
670.714
655.971
641.229
626.486
611.745
597.005
582.266
567.528
552.791
538.053
523.316
508.58
493.843
479.107
464.371
449.635
434.898
420.159
405.419
390.676
375.93
361.182
346.43
331.675
316.919
302.162
287.405
272.649
257.894
243.143
228.395
213.65
198.909
184.171
169.436
154.702
139.97
125.238
110.505
95.7724
81.0389
66.3047
51.57
36.8353
22.1009
7.36684
3738.82
2854.37
3367.47
3761.86
3745.72
3612.98
3555.63
3559.66
3564.37
3551.39
3531.59
3514.43
3500.28
3486.47
3471.89
3456.94
3442.07
3427.35
3412.66
3397.93
3383.18
3368.43
3353.68
3338.94
3324.2
3309.45
3294.71
3279.97
3265.23
3250.49
3235.75
3221.01
3206.27
3191.53
3176.79
3162.05
3147.3
3132.56
3117.82
3103.08
3088.34
3073.6
3058.85
3044.11
3029.37
3014.62
2999.88
2985.14
2970.4
2955.66
2940.91
2926.17
2911.43
2896.69
2881.95
2867.21
2852.47
2837.73
2822.99
2808.24
2793.5
2778.76
2764.02
2749.28
2734.54
2719.8
2705.05
2690.31
2675.57
2660.83
2646.09
2631.35
2616.6
2601.86
2587.12
2572.38
2557.64
2542.9
2528.16
2513.41
2498.67
2483.93
2469.19
2454.45
2439.71
2424.97
2410.22
2395.48
2380.74
2366
2351.26
2336.52
2321.78
2307.03
2292.29
2277.55
2262.81
2248.07
2233.33
2218.59
2203.84
2189.1
2174.36
2159.62
2144.88
2130.14
2115.4
2100.66
2085.92
2071.17
2056.43
2041.69
2026.95
2012.21
1997.47
1982.73
1967.98
1953.24
1938.5
1923.76
1909.02
1894.28
1879.54
1864.79
1850.05
1835.31
1820.57
1805.83
1791.09
1776.34
1761.6
1746.86
1732.11
1717.37
1702.63
1687.89
1673.15
1658.41
1643.66
1628.92
1614.18
1599.44
1584.7
1569.96
1555.21
1540.47
1525.73
1510.99
1496.25
1481.51
1466.77
1452.02
1437.28
1422.53
1407.79
1393.05
1378.31
1363.57
1348.83
1334.09
1319.35
1304.6
1289.86
1275.11
1260.37
1245.64
1230.9
1216.16
1201.42
1186.68
1171.94
1157.19
1142.45
1127.7
1112.96
1098.23
1083.49
1068.76
1054.02
1039.28
1024.53
1009.79
995.041
980.296
965.553
950.813
936.074
921.336
906.598
891.858
877.115
862.37
847.622
832.875
818.128
803.382
788.639
773.897
759.157
744.418
729.679
714.939
700.198
685.456
670.713
655.971
641.228
626.486
611.745
597.005
582.266
567.528
552.791
538.054
523.317
508.58
493.843
479.107
464.371
449.635
434.898
420.159
405.419
390.676
375.93
361.182
346.43
331.676
316.919
302.162
287.405
272.649
257.895
243.143
228.395
213.651
198.91
184.172
169.436
154.703
139.97
125.238
110.505
95.7725
81.0388
66.3046
51.5699
36.8353
22.1008
7.36692
3738.81
2854.36
3367.46
3761.86
3745.72
3612.98
3555.63
3559.67
3564.36
3551.39
3531.59
3514.43
3500.29
3486.47
3471.9
3456.94
3442.07
3427.35
3412.66
3397.93
3383.17
3368.42
3353.68
3338.93
3324.19
3309.45
3294.71
3279.98
3265.23
3250.49
3235.75
3221.01
3206.27
3191.52
3176.78
3162.04
3147.31
3132.56
3117.82
3103.08
3088.34
3073.6
3058.85
3044.11
3029.37
3014.63
2999.89
2985.15
2970.4
2955.66
2940.92
2926.18
2911.44
2896.69
2881.95
2867.21
2852.47
2837.73
2822.98
2808.24
2793.5
2778.76
2764.02
2749.27
2734.53
2719.8
2705.06
2690.31
2675.57
2660.83
2646.09
2631.35
2616.61
2601.86
2587.12
2572.38
2557.64
2542.9
2528.16
2513.41
2498.67
2483.93
2469.19
2454.45
2439.71
2424.97
2410.22
2395.48
2380.74
2366
2351.26
2336.52
2321.77
2307.03
2292.29
2277.55
2262.81
2248.07
2233.33
2218.59
2203.85
2189.1
2174.36
2159.62
2144.88
2130.14
2115.4
2100.66
2085.91
2071.17
2056.43
2041.69
2026.95
2012.21
1997.47
1982.72
1967.98
1953.24
1938.5
1923.76
1909.02
1894.28
1879.53
1864.79
1850.05
1835.31
1820.57
1805.83
1791.09
1776.34
1761.6
1746.86
1732.11
1717.37
1702.63
1687.89
1673.15
1658.41
1643.66
1628.92
1614.18
1599.44
1584.7
1569.96
1555.21
1540.47
1525.73
1510.99
1496.25
1481.51
1466.76
1452.02
1437.28
1422.53
1407.79
1393.05
1378.31
1363.57
1348.83
1334.09
1319.35
1304.6
1289.86
1275.11
1260.37
1245.64
1230.9
1216.16
1201.42
1186.68
1171.94
1157.19
1142.45
1127.7
1112.96
1098.23
1083.49
1068.76
1054.02
1039.28
1024.53
1009.78
995.039
980.295
965.553
950.813
936.075
921.337
906.599
891.858
877.115
862.369
847.622
832.874
818.127
803.382
788.639
773.898
759.158
744.419
729.679
714.94
700.199
685.457
670.714
655.971
641.228
626.486
611.746
597.006
582.267
567.529
552.791
538.054
523.317
508.58
493.843
479.106
464.37
449.634
434.897
420.159
405.419
390.676
375.93
361.182
346.43
331.676
316.92
302.163
287.406
272.649
257.895
243.144
228.396
213.651
198.91
184.173
169.437
154.704
139.971
125.239
110.506
95.7729
81.0391
66.3047
51.5699
36.8351
22.1007
7.3668
3738.81
2854.36
3367.47
3761.87
3745.71
3612.97
3555.63
3559.67
3564.37
3551.39
3531.58
3514.42
3500.28
3486.47
3471.89
3456.94
3442.07
3427.35
3412.66
3397.93
3383.18
3368.43
3353.68
3338.94
3324.19
3309.45
3294.71
3279.97
3265.23
3250.49
3235.75
3221.01
3206.27
3191.53
3176.78
3162.04
3147.31
3132.56
3117.82
3103.08
3088.34
3073.59
3058.85
3044.11
3029.37
3014.62
2999.88
2985.14
2970.4
2955.66
2940.92
2926.18
2911.44
2896.69
2881.95
2867.21
2852.47
2837.73
2822.98
2808.24
2793.5
2778.76
2764.02
2749.28
2734.53
2719.8
2705.06
2690.31
2675.57
2660.83
2646.09
2631.35
2616.61
2601.86
2587.12
2572.38
2557.64
2542.9
2528.16
2513.41
2498.67
2483.93
2469.19
2454.45
2439.71
2424.97
2410.22
2395.48
2380.74
2366
2351.26
2336.52
2321.77
2307.03
2292.29
2277.55
2262.81
2248.07
2233.33
2218.59
2203.85
2189.1
2174.36
2159.62
2144.88
2130.14
2115.4
2100.66
2085.91
2071.17
2056.43
2041.69
2026.95
2012.21
1997.46
1982.72
1967.98
1953.24
1938.5
1923.76
1909.02
1894.27
1879.53
1864.79
1850.05
1835.31
1820.57
1805.83
1791.09
1776.34
1761.6
1746.86
1732.11
1717.37
1702.63
1687.89
1673.15
1658.41
1643.66
1628.92
1614.18
1599.44
1584.7
1569.96
1555.21
1540.47
1525.73
1510.99
1496.25
1481.51
1466.76
1452.02
1437.28
1422.53
1407.79
1393.05
1378.31
1363.57
1348.83
1334.09
1319.35
1304.6
1289.86
1275.12
1260.38
1245.64
1230.9
1216.16
1201.42
1186.68
1171.93
1157.19
1142.44
1127.7
1112.97
1098.23
1083.49
1068.76
1054.02
1039.27
1024.53
1009.78
995.037
980.293
965.552
950.814
936.076
921.339
906.6
891.859
877.115
862.369
847.621
832.873
818.126
803.381
788.639
773.898
759.159
744.42
729.681
714.94
700.199
685.457
670.714
655.971
641.228
626.486
611.746
597.006
582.267
567.529
552.791
538.054
523.317
508.579
493.843
479.106
464.37
449.633
434.897
420.159
405.418
390.676
375.93
361.182
346.43
331.676
316.921
302.163
287.406
272.65
257.896
243.145
228.397
213.652
198.912
184.174
169.438
154.705
139.972
125.239
110.507
95.7731
81.0391
66.3045
51.5697
36.8349
22.1005
7.36675
3738.81
2854.36
3367.46
3761.86
3745.72
3612.98
3555.63
3559.66
3564.36
3551.38
3531.58
3514.43
3500.29
3486.48
3471.9
3456.94
3442.07
3427.35
3412.66
3397.93
3383.17
3368.42
3353.68
3338.94
3324.19
3309.45
3294.71
3279.97
3265.23
3250.49
3235.75
3221.01
3206.27
3191.53
3176.79
3162.04
3147.3
3132.56
3117.82
3103.08
3088.34
3073.6
3058.85
3044.11
3029.37
3014.63
2999.89
2985.14
2970.4
2955.66
2940.92
2926.18
2911.44
2896.7
2881.95
2867.21
2852.47
2837.73
2822.99
2808.24
2793.5
2778.76
2764.02
2749.28
2734.54
2719.8
2705.06
2690.31
2675.57
2660.83
2646.09
2631.35
2616.61
2601.86
2587.12
2572.38
2557.64
2542.9
2528.16
2513.41
2498.67
2483.93
2469.19
2454.45
2439.71
2424.97
2410.22
2395.48
2380.74
2366
2351.26
2336.52
2321.77
2307.03
2292.29
2277.55
2262.81
2248.07
2233.33
2218.59
2203.84
2189.1
2174.36
2159.62
2144.88
2130.14
2115.4
2100.65
2085.91
2071.17
2056.43
2041.69
2026.95
2012.21
1997.46
1982.72
1967.98
1953.24
1938.5
1923.76
1909.02
1894.27
1879.53
1864.79
1850.05
1835.31
1820.57
1805.83
1791.08
1776.34
1761.6
1746.86
1732.12
1717.38
1702.63
1687.89
1673.15
1658.41
1643.66
1628.92
1614.18
1599.44
1584.7
1569.96
1555.21
1540.47
1525.73
1510.99
1496.25
1481.51
1466.76
1452.02
1437.28
1422.53
1407.79
1393.05
1378.31
1363.57
1348.83
1334.09
1319.35
1304.6
1289.86
1275.12
1260.38
1245.64
1230.9
1216.16
1201.42
1186.68
1171.93
1157.19
1142.44
1127.7
1112.97
1098.23
1083.5
1068.76
1054.02
1039.27
1024.53
1009.78
995.035
980.292
965.552
950.814
936.077
921.34
906.601
891.859
877.115
862.368
847.62
832.872
818.126
803.381
788.639
773.899
759.16
744.421
729.682
714.941
700.2
685.457
670.714
655.971
641.229
626.487
611.746
597.007
582.268
567.53
552.792
538.054
523.316
508.579
493.842
479.105
464.369
449.633
434.896
420.158
405.418
390.675
375.93
361.182
346.431
331.677
316.921
302.164
287.407
272.651
257.897
243.146
228.398
213.654
198.913
184.175
169.44
154.706
139.973
125.24
110.507
95.7736
81.0393
66.3046
51.5696
36.8348
22.1004
7.36666
3738.81
2854.36
3367.46
3761.85
3745.71
3612.98
3555.64
3559.67
3564.37
3551.39
3531.58
3514.43
3500.28
3486.47
3471.89
3456.94
3442.07
3427.35
3412.66
3397.93
3383.18
3368.42
3353.68
3338.93
3324.19
3309.45
3294.71
3279.97
3265.23
3250.49
3235.75
3221.01
3206.26
3191.53
3176.79
3162.05
3147.3
3132.56
3117.82
3103.08
3088.34
3073.59
3058.85
3044.11
3029.37
3014.62
2999.88
2985.14
2970.4
2955.66
2940.92
2926.17
2911.43
2896.69
2881.95
2867.21
2852.47
2837.73
2822.99
2808.25
2793.5
2778.76
2764.02
2749.28
2734.54
2719.8
2705.05
2690.31
2675.57
2660.83
2646.09
2631.35
2616.61
2601.86
2587.12
2572.38
2557.64
2542.9
2528.16
2513.42
2498.67
2483.93
2469.19
2454.45
2439.71
2424.97
2410.23
2395.48
2380.74
2366
2351.26
2336.52
2321.77
2307.03
2292.29
2277.55
2262.81
2248.07
2233.33
2218.58
2203.84
2189.1
2174.36
2159.62
2144.88
2130.14
2115.39
2100.65
2085.91
2071.17
2056.43
2041.69
2026.95
2012.2
1997.46
1982.72
1967.98
1953.24
1938.5
1923.76
1909.02
1894.27
1879.53
1864.79
1850.05
1835.31
1820.57
1805.83
1791.08
1776.34
1761.6
1746.86
1732.12
1717.38
1702.63
1687.89
1673.15
1658.4
1643.66
1628.92
1614.18
1599.44
1584.7
1569.96
1555.21
1540.47
1525.73
1510.99
1496.25
1481.51
1466.76
1452.02
1437.28
1422.53
1407.79
1393.05
1378.31
1363.57
1348.83
1334.09
1319.35
1304.6
1289.86
1275.12
1260.38
1245.64
1230.9
1216.16
1201.42
1186.68
1171.93
1157.19
1142.44
1127.71
1112.97
1098.23
1083.5
1068.76
1054.02
1039.27
1024.52
1009.78
995.034
980.292
965.552
950.815
936.079
921.341
906.602
891.859
877.114
862.367
847.619
832.871
818.125
803.381
788.64
773.9
759.161
744.422
729.683
714.942
700.2
685.458
670.715
655.972
641.229
626.488
611.747
597.007
582.268
567.53
552.792
538.054
523.316
508.578
493.841
479.105
464.368
449.632
434.895
420.156
405.417
390.675
375.93
361.183
346.432
331.678
316.922
302.165
287.408
272.652
257.898
243.147
228.399
213.655
198.914
184.177
169.441
154.707
139.974
125.241
110.508
95.7739
81.0394
66.3045
51.5695
36.8346
22.1002
7.36659
3738.81
2854.36
3367.46
3761.86
3745.71
3612.97
3555.63
3559.66
3564.36
3551.38
3531.58
3514.43
3500.28
3486.48
3471.9
3456.94
3442.07
3427.35
3412.66
3397.93
3383.18
3368.43
3353.68
3338.94
3324.19
3309.45
3294.71
3279.97
3265.23
3250.49
3235.75
3221.01
3206.27
3191.52
3176.78
3162.04
3147.3
3132.56
3117.82
3103.08
3088.34
3073.6
3058.85
3044.11
3029.37
3014.63
2999.88
2985.14
2970.4
2955.66
2940.92
2926.18
2911.43
2896.69
2881.95
2867.21
2852.47
2837.73
2822.99
2808.25
2793.5
2778.76
2764.02
2749.28
2734.54
2719.8
2705.05
2690.31
2675.57
2660.83
2646.09
2631.35
2616.61
2601.86
2587.12
2572.38
2557.64
2542.9
2528.16
2513.42
2498.67
2483.93
2469.19
2454.45
2439.71
2424.97
2410.23
2395.48
2380.74
2366
2351.26
2336.51
2321.77
2307.03
2292.29
2277.55
2262.81
2248.07
2233.32
2218.58
2203.84
2189.1
2174.36
2159.62
2144.88
2130.13
2115.39
2100.65
2085.91
2071.17
2056.43
2041.69
2026.95
2012.2
1997.46
1982.72
1967.98
1953.24
1938.5
1923.76
1909.01
1894.27
1879.53
1864.79
1850.05
1835.31
1820.57
1805.83
1791.08
1776.34
1761.6
1746.86
1732.12
1717.38
1702.63
1687.89
1673.15
1658.4
1643.66
1628.92
1614.18
1599.44
1584.7
1569.96
1555.21
1540.47
1525.73
1510.99
1496.25
1481.51
1466.76
1452.02
1437.28
1422.54
1407.79
1393.05
1378.31
1363.57
1348.83
1334.09
1319.34
1304.6
1289.86
1275.12
1260.38
1245.64
1230.9
1216.16
1201.42
1186.67
1171.93
1157.19
1142.45
1127.71
1112.97
1098.24
1083.5
1068.76
1054.01
1039.27
1024.52
1009.78
995.032
980.291
965.553
950.816
936.08
921.342
906.602
891.859
877.114
862.366
847.618
832.87
818.125
803.381
788.64
773.901
759.162
744.423
729.684
714.943
700.201
685.458
670.715
655.972
641.229
626.488
611.748
597.008
582.269
567.531
552.792
538.054
523.316
508.578
493.84
479.103
464.367
449.63
434.893
420.156
405.416
390.675
375.93
361.183
346.432
331.679
316.923
302.166
287.41
272.654
257.9
243.149
228.401
213.657
198.916
184.178
169.443
154.709
139.975
125.242
110.508
95.7743
81.0396
66.3045
51.5693
36.8344
22.1
7.3665
3738.81
2854.36
3367.45
3761.85
3745.71
3612.98
3555.63
3559.66
3564.37
3551.39
3531.59
3514.43
3500.28
3486.47
3471.9
3456.94
3442.07
3427.35
3412.66
3397.93
3383.17
3368.42
3353.68
3338.94
3324.19
3309.45
3294.71
3279.97
3265.23
3250.49
3235.75
3221.01
3206.27
3191.53
3176.79
3162.04
3147.3
3132.56
3117.82
3103.08
3088.33
3073.59
3058.85
3044.11
3029.37
3014.63
2999.89
2985.15
2970.4
2955.66
2940.92
2926.18
2911.44
2896.7
2881.95
2867.21
2852.47
2837.73
2822.99
2808.25
2793.5
2778.76
2764.02
2749.28
2734.54
2719.79
2705.05
2690.31
2675.57
2660.83
2646.09
2631.35
2616.61
2601.86
2587.12
2572.38
2557.64
2542.9
2528.16
2513.42
2498.67
2483.93
2469.19
2454.45
2439.71
2424.97
2410.23
2395.48
2380.74
2366
2351.26
2336.51
2321.77
2307.03
2292.29
2277.55
2262.81
2248.07
2233.32
2218.58
2203.84
2189.1
2174.36
2159.62
2144.88
2130.13
2115.39
2100.65
2085.91
2071.17
2056.43
2041.69
2026.94
2012.2
1997.46
1982.72
1967.98
1953.24
1938.5
1923.76
1909.01
1894.27
1879.53
1864.79
1850.05
1835.31
1820.57
1805.83
1791.08
1776.34
1761.6
1746.86
1732.12
1717.38
1702.63
1687.89
1673.15
1658.4
1643.66
1628.92
1614.18
1599.44
1584.7
1569.96
1555.21
1540.47
1525.73
1510.99
1496.25
1481.5
1466.76
1452.02
1437.28
1422.54
1407.8
1393.06
1378.32
1363.57
1348.83
1334.09
1319.34
1304.6
1289.86
1275.12
1260.38
1245.65
1230.9
1216.16
1201.42
1186.67
1171.93
1157.19
1142.45
1127.71
1112.97
1098.24
1083.5
1068.76
1054.01
1039.27
1024.52
1009.77
995.031
980.291
965.553
950.817
936.081
921.343
906.603
891.859
877.113
862.365
847.617
832.87
818.124
803.382
788.641
773.902
759.163
744.425
729.685
714.944
700.202
685.459
670.715
655.972
641.23
626.489
611.748
597.009
582.27
567.531
552.793
538.054
523.315
508.577
493.839
479.102
464.366
449.629
434.892
420.155
405.416
390.674
375.93
361.183
346.433
331.679
316.924
302.168
287.411
272.655
257.902
243.151
228.403
213.659
198.918
184.18
169.444
154.71
139.976
125.243
110.509
95.7747
81.0398
66.3045
51.5691
36.8341
22.0998
7.3664
3738.81
2854.36
3367.46
3761.86
3745.71
3612.97
3555.63
3559.66
3564.36
3551.38
3531.58
3514.43
3500.28
3486.47
3471.9
3456.94
3442.07
3427.35
3412.66
3397.93
3383.17
3368.42
3353.68
3338.94
3324.19
3309.45
3294.71
3279.97
3265.23
3250.49
3235.75
3221.01
3206.27
3191.53
3176.79
3162.04
3147.3
3132.56
3117.82
3103.08
3088.34
3073.59
3058.85
3044.11
3029.37
3014.63
2999.89
2985.15
2970.4
2955.66
2940.92
2926.18
2911.44
2896.7
2881.95
2867.21
2852.47
2837.73
2822.99
2808.25
2793.5
2778.76
2764.02
2749.28
2734.54
2719.79
2705.05
2690.31
2675.57
2660.83
2646.09
2631.35
2616.61
2601.86
2587.12
2572.38
2557.64
2542.9
2528.16
2513.41
2498.67
2483.93
2469.19
2454.45
2439.71
2424.97
2410.22
2395.48
2380.74
2366
2351.26
2336.51
2321.77
2307.03
2292.3
2277.55
2262.81
2248.07
2233.32
2218.58
2203.84
2189.11
2174.37
2159.62
2144.88
2130.13
2115.39
2100.65
2085.91
2071.17
2056.43
2041.69
2026.94
2012.2
1997.46
1982.72
1967.98
1953.24
1938.5
1923.76
1909.01
1894.27
1879.53
1864.79
1850.05
1835.31
1820.57
1805.82
1791.08
1776.34
1761.6
1746.86
1732.12
1717.38
1702.63
1687.89
1673.15
1658.4
1643.66
1628.92
1614.18
1599.44
1584.7
1569.96
1555.22
1540.47
1525.73
1510.99
1496.25
1481.5
1466.76
1452.02
1437.28
1422.54
1407.8
1393.06
1378.32
1363.57
1348.83
1334.09
1319.34
1304.6
1289.86
1275.13
1260.39
1245.65
1230.9
1216.16
1201.41
1186.67
1171.93
1157.19
1142.45
1127.71
1112.98
1098.24
1083.5
1068.76
1054.01
1039.26
1024.52
1009.77
995.029
980.291
965.554
950.819
936.082
921.344
906.603
891.859
877.112
862.364
847.616
832.869
818.124
803.382
788.642
773.903
759.165
744.426
729.686
714.945
700.202
685.459
670.716
655.973
641.231
626.489
611.749
597.01
582.271
567.532
552.793
538.054
523.315
508.576
493.838
479.101
464.364
449.628
434.891
420.154
405.415
390.674
375.93
361.183
346.433
331.68
316.925
302.169
287.412
272.657
257.903
243.153
228.405
213.661
198.92
184.182
169.446
154.711
139.978
125.244
110.51
95.7751
81.0399
66.3044
51.569
36.8339
22.0996
7.36631
3738.8
2854.35
3367.46
3761.85
3745.72
3612.98
3555.63
3559.66
3564.36
3551.39
3531.58
3514.43
3500.29
3486.47
3471.9
3456.94
3442.07
3427.35
3412.66
3397.93
3383.18
3368.42
3353.68
3338.94
3324.2
3309.45
3294.71
3279.97
3265.23
3250.49
3235.75
3221.01
3206.27
3191.53
3176.79
3162.05
3147.3
3132.56
3117.82
3103.08
3088.34
3073.6
3058.85
3044.11
3029.37
3014.63
2999.89
2985.14
2970.4
2955.66
2940.92
2926.18
2911.44
2896.7
2881.95
2867.21
2852.47
2837.73
2822.99
2808.25
2793.5
2778.76
2764.02
2749.28
2734.54
2719.8
2705.06
2690.31
2675.57
2660.83
2646.09
2631.35
2616.61
2601.86
2587.12
2572.38
2557.64
2542.9
2528.16
2513.41
2498.67
2483.93
2469.19
2454.45
2439.7
2424.96
2410.22
2395.49
2380.74
2366
2351.26
2336.51
2321.77
2307.03
2292.3
2277.56
2262.81
2248.06
2233.32
2218.58
2203.84
2189.11
2174.37
2159.62
2144.87
2130.13
2115.39
2100.65
2085.91
2071.17
2056.43
2041.69
2026.94
2012.2
1997.46
1982.72
1967.98
1953.24
1938.5
1923.75
1909.01
1894.27
1879.53
1864.79
1850.05
1835.31
1820.57
1805.82
1791.08
1776.34
1761.6
1746.86
1732.12
1717.37
1702.63
1687.89
1673.15
1658.41
1643.66
1628.92
1614.18
1599.44
1584.7
1569.96
1555.22
1540.47
1525.73
1510.99
1496.25
1481.5
1466.76
1452.02
1437.28
1422.54
1407.8
1393.06
1378.32
1363.57
1348.83
1334.09
1319.34
1304.6
1289.87
1275.13
1260.39
1245.65
1230.9
1216.16
1201.41
1186.67
1171.93
1157.19
1142.45
1127.71
1112.98
1098.24
1083.5
1068.75
1054.01
1039.26
1024.51
1009.77
995.029
980.291
965.555
950.82
936.083
921.345
906.603
891.858
877.111
862.363
847.615
832.868
818.124
803.382
788.643
773.904
759.166
744.427
729.687
714.945
700.203
685.459
670.716
655.973
641.231
626.49
611.75
597.011
582.271
567.532
552.793
538.054
523.314
508.576
493.837
479.1
464.363
449.627
434.89
420.153
405.415
390.674
375.93
361.184
346.434
331.681
316.926
302.17
287.414
272.658
257.905
243.155
228.407
213.663
198.922
184.184
169.448
154.713
139.979
125.245
110.51
95.7755
81.0401
66.3043
51.5687
36.8336
22.0994
7.36621
3738.81
2854.36
3367.46
3761.85
3745.71
3612.97
3555.64
3559.66
3564.36
3551.39
3531.58
3514.43
3500.28
3486.47
3471.9
3456.94
3442.07
3427.35
3412.66
3397.93
3383.18
3368.42
3353.68
3338.94
3324.2
3309.45
3294.71
3279.97
3265.23
3250.49
3235.75
3221.01
3206.27
3191.52
3176.78
3162.04
3147.3
3132.56
3117.82
3103.08
3088.33
3073.59
3058.85
3044.11
3029.37
3014.63
2999.89
2985.14
2970.4
2955.66
2940.92
2926.18
2911.44
2896.7
2881.95
2867.21
2852.47
2837.73
2822.99
2808.25
2793.5
2778.76
2764.02
2749.28
2734.54
2719.8
2705.06
2690.31
2675.57
2660.83
2646.09
2631.35
2616.61
2601.87
2587.12
2572.38
2557.64
2542.89
2528.15
2513.41
2498.68
2483.94
2469.19
2454.45
2439.7
2424.96
2410.23
2395.49
2380.75
2366
2351.25
2336.51
2321.77
2307.04
2292.3
2277.55
2262.81
2248.06
2233.32
2218.58
2203.85
2189.11
2174.37
2159.62
2144.87
2130.13
2115.39
2100.65
2085.91
2071.17
2056.43
2041.69
2026.94
2012.2
1997.46
1982.72
1967.98
1953.24
1938.5
1923.75
1909.01
1894.27
1879.53
1864.79
1850.05
1835.31
1820.56
1805.82
1791.08
1776.34
1761.6
1746.86
1732.12
1717.37
1702.63
1687.89
1673.15
1658.41
1643.66
1628.92
1614.18
1599.44
1584.7
1569.96
1555.22
1540.47
1525.73
1510.99
1496.25
1481.5
1466.76
1452.02
1437.28
1422.54
1407.8
1393.06
1378.32
1363.57
1348.83
1334.09
1319.35
1304.61
1289.87
1275.13
1260.39
1245.65
1230.9
1216.16
1201.41
1186.67
1171.93
1157.19
1142.45
1127.71
1112.98
1098.24
1083.5
1068.75
1054.01
1039.26
1024.51
1009.77
995.028
980.291
965.556
950.821
936.084
921.345
906.603
891.857
877.11
862.362
847.614
832.868
818.124
803.383
788.644
773.905
759.167
744.428
729.688
714.946
700.203
685.46
670.717
655.974
641.232
626.491
611.751
597.011
582.272
567.533
552.793
538.054
523.314
508.575
493.836
479.098
464.362
449.625
434.889
420.152
405.414
390.673
375.93
361.184
346.434
331.682
316.927
302.171
287.415
272.66
257.907
243.157
228.409
213.665
198.924
184.186
169.45
154.715
139.98
125.246
110.511
95.7759
81.0402
66.3042
51.5685
36.8334
22.0992
7.36614
3738.8
2854.36
3367.46
3761.86
3745.71
3612.98
3555.63
3559.66
3564.36
3551.39
3531.58
3514.43
3500.28
3486.47
3471.9
3456.94
3442.07
3427.35
3412.65
3397.93
3383.18
3368.42
3353.68
3338.94
3324.2
3309.45
3294.71
3279.97
3265.23
3250.49
3235.75
3221.01
3206.27
3191.53
3176.79
3162.04
3147.3
3132.56
3117.82
3103.08
3088.34
3073.59
3058.85
3044.11
3029.37
3014.63
2999.89
2985.15
2970.4
2955.66
2940.92
2926.18
2911.44
2896.7
2881.95
2867.21
2852.47
2837.73
2822.99
2808.25
2793.5
2778.76
2764.02
2749.28
2734.54
2719.8
2705.06
2690.31
2675.57
2660.83
2646.09
2631.34
2616.61
2601.87
2587.13
2572.38
2557.64
2542.89
2528.15
2513.42
2498.68
2483.94
2469.19
2454.44
2439.7
2424.96
2410.23
2395.49
2380.75
2366
2351.25
2336.51
2321.77
2307.04
2292.3
2277.55
2262.81
2248.06
2233.32
2218.58
2203.85
2189.11
2174.36
2159.62
2144.87
2130.13
2115.39
2100.65
2085.91
2071.17
2056.43
2041.68
2026.94
2012.2
1997.46
1982.72
1967.98
1953.24
1938.5
1923.75
1909.01
1894.27
1879.53
1864.79
1850.05
1835.31
1820.56
1805.82
1791.08
1776.34
1761.6
1746.86
1732.11
1717.37
1702.63
1687.89
1673.15
1658.41
1643.66
1628.92
1614.18
1599.44
1584.7
1569.96
1555.22
1540.47
1525.73
1510.99
1496.25
1481.5
1466.76
1452.02
1437.28
1422.54
1407.8
1393.06
1378.32
1363.57
1348.83
1334.09
1319.35
1304.61
1289.87
1275.13
1260.39
1245.65
1230.9
1216.16
1201.41
1186.67
1171.93
1157.19
1142.45
1127.72
1112.98
1098.24
1083.5
1068.75
1054
1039.26
1024.51
1009.77
995.028
980.291
965.557
950.822
936.085
921.345
906.602
891.857
877.109
862.361
847.613
832.868
818.125
803.384
788.645
773.907
759.168
744.429
729.689
714.947
700.204
685.46
670.717
655.974
641.232
626.492
611.752
597.012
582.273
567.533
552.793
538.053
523.313
508.574
493.835
479.097
464.36
449.624
434.888
420.151
405.413
390.673
375.93
361.184
346.434
331.682
316.928
302.172
287.417
272.662
257.909
243.159
228.412
213.668
198.927
184.188
169.452
154.716
139.982
125.247
110.512
95.7765
81.0403
66.304
51.5681
36.833
22.0989
7.36604
3738.81
2854.36
3367.46
3761.86
3745.71
3612.97
3555.63
3559.67
3564.36
3551.39
3531.58
3514.43
3500.28
3486.47
3471.9
3456.95
3442.07
3427.35
3412.66
3397.93
3383.18
3368.42
3353.68
3338.94
3324.2
3309.46
3294.71
3279.97
3265.23
3250.49
3235.75
3221.01
3206.27
3191.53
3176.79
3162.04
3147.3
3132.56
3117.82
3103.08
3088.34
3073.6
3058.85
3044.11
3029.37
3014.63
2999.89
2985.15
2970.4
2955.66
2940.92
2926.18
2911.44
2896.7
2881.95
2867.21
2852.47
2837.73
2822.98
2808.24
2793.5
2778.76
2764.02
2749.28
2734.53
2719.79
2705.06
2690.32
2675.57
2660.83
2646.08
2631.34
2616.61
2601.87
2587.13
2572.38
2557.63
2542.89
2528.15
2513.42
2498.68
2483.94
2469.19
2454.44
2439.7
2424.96
2410.23
2395.49
2380.74
2366
2351.25
2336.51
2321.78
2307.04
2292.3
2277.55
2262.81
2248.06
2233.32
2218.58
2203.85
2189.1
2174.36
2159.62
2144.87
2130.13
2115.39
2100.65
2085.91
2071.17
2056.43
2041.68
2026.94
2012.2
1997.46
1982.72
1967.98
1953.24
1938.49
1923.75
1909.01
1894.27
1879.53
1864.79
1850.05
1835.3
1820.56
1805.82
1791.08
1776.34
1761.6
1746.85
1732.11
1717.37
1702.63
1687.89
1673.15
1658.41
1643.66
1628.92
1614.18
1599.44
1584.7
1569.96
1555.22
1540.47
1525.73
1510.99
1496.25
1481.5
1466.76
1452.02
1437.28
1422.54
1407.8
1393.06
1378.32
1363.57
1348.83
1334.09
1319.35
1304.61
1289.87
1275.13
1260.39
1245.65
1230.9
1216.15
1201.41
1186.67
1171.93
1157.19
1142.45
1127.72
1112.98
1098.24
1083.5
1068.75
1054
1039.25
1024.51
1009.77
995.028
980.292
965.558
950.823
936.085