/*--------------------------------*- C++ -*----------------------------------*\
| =========                 |                                                 |
| \\      /  F ield         | OpenFOAM: The Open Source CFD Toolbox           |
|  \\    /   O peration     | Version:  2406                                  |
|   \\  /    A nd           | Website:  www.openfoam.com                      |
|    \\/     M anipulation  |                                                 |
\*---------------------------------------------------------------------------*/
FoamFile
{
    version     2.0;
    format      ascii;
    arch        "LSB;label=32;scalar=64";
    class       volScalarField;
    location    "0.2";
    object      p_rgh;
}
// * * * * * * * * * * * * * * * * * * * * * * * * * * * * * * * * * * * * * //

dimensions      [1 -1 -2 0 0 0 0];

internalField   nonuniform List<scalar> 
6250
(
2315.97
2440.46
3745
4003.92
3727.73
3581.57
3608.18
3659.37
3670.89
3660.55
3653.7
3654.6
3657.5
3658.96
3659.37
3659.9
3660.89
3662.15
3663.51
3664.99
3666.65
3668.55
3670.7
3673.13
3675.87
3678.97
3682.45
3686.38
3690.8
3695.76
3701.3
3707.5
3714.38
3722
3730.38
3739.53
3749.43
3760.03
3771.22
3782.83
3794.62
3806.28
3817.4
3827.53
3836.13
3842.71
3846.78
3848.07
3846.32
3842.21
3834.72
3832.31
3813.8
3841.08
3805.94
3568.75
2724.13
2444.22
2412.6
2550.64
2693.08
2690.74
2587.69
2491.48
2437.95
2396.87
2337.62
2247.44
2134.64
2013.25
1898.24
1803.55
1738.77
1700.98
1678.17
1661.08
1644.63
1622.56
1588.14
1539.9
1479.7
1408.96
1333.9
1265.28
1223.08
1216.91
1238.88
1269.91
1295.57
1313.15
1324.21
1325.24
1308.32
1275.18
1237.63
1202.51
1168.69
1131.49
1085.18
1028.49
965.885
904.939
849.036
797.564
749.899
707.458
672.708
649.319
641.256
648.377
664.974
683.51
700.317
715.73
730.971
746.3
759.445
768.018
769.334
763.116
750.708
734.996
717.405
699.397
681.66
664.009
645.937
627.097
607.318
586.338
563.72
538.98
511.72
481.666
448.759
413.289
375.704
336.243
295.002
252.374
208.937
165.383
122.981
83.4387
48.4533
19.2224
-3.53957
-19.9128
-29.7576
-32.3075
-25.546
-6.03086
27.2157
73.5533
135.582
210.114
294.838
387.39
484.453
581.788
676.381
765.635
847.871
922.808
991.316
1054.22
1113.62
1167.63
1215.51
1256.94
1292.22
1322.12
1347.57
1369.76
1389.76
1408.62
1427.3
1446.63
1466.98
1488
1507.38
1521.22
1529.62
1540.67
1559.7
1581.81
1603.11
1621.04
1634.98
1645.23
1652.19
1655.91
1656.03
1652.75
1647.13
1640.86
1635.37
1630.9
1626.93
1622.69
1617.23
1610.4
1602.59
1593.2
1580.51
1563.61
1542.54
1517.49
1489.56
1459.92
1428.72
1395.23
1358.22
1317.53
1274.79
1230.64
1188.3
1176.26
1188.59
1186.49
1152.46
1089.01
1016.12
946.618
879.316
809.588
737.296
669.617
615.333
562.894
500.974
425.093
336.748
243.592
157.995
92.5746
52.4842
35.9127
32.446
30.0928
19.176
-2.83084
-31.163
-59.231
-82.5986
-100.541
-115.437
-130.339
-140.596
-95.4354
2311.39
2434.19
3743.29
4004.53
3727.52
3580.2
3606.71
3658.27
3669.93
3659.47
3652.47
3653.28
3656.09
3657.43
3657.68
3658.02
3658.8
3659.81
3660.88
3662.02
3663.3
3664.76
3666.41
3668.27
3670.36
3672.72
3675.38
3678.37
3681.75
3685.55
3689.82
3694.62
3700.01
3706.03
3712.75
3720.21
3728.46
3737.51
3747.34
3757.89
3769.02
3780.5
3792.03
3803.2
3813.51
3822.36
3829.12
3833.33
3834.63
3833.86
3831.42
3833.14
3844.86
3892.48
3905.44
3751.11
3565.5
3233.39
2611.83
2766.37
3196.02
3062.26
2713.54
2553.67
2520.49
2483.29
2405.05
2302.23
2186.71
2060.24
1942.11
1845.73
1780.57
1740.65
1709.66
1683.73
1666.76
1650.63
1615.07
1558.44
1493.69
1435.54
1369.36
1294.15
1244.06
1232.1
1256.93
1292.33
1322.79
1351.74
1370.04
1383.28
1376.77
1336.44
1280.14
1237.18
1211.42
1193.57
1161.61
1104.69
1025.2
949.837
887.234
830.006
772.355
718.488
675.459
647.378
637.344
643.882
661.547
679.959
695.932
708.562
723.296
742.091
761.816
778.632
783.975
781.891
772.121
755.433
735.005
714.446
696.025
679.186
662.281
644.283
625.297
605.313
583.776
559.986
533.42
503.485
469.624
432.399
392.596
350.361
305.988
260.289
212.586
162.257
110.855
60.7123
14.4163
-25.6491
-57.4437
-79.5088
-90.5704
-90.1263
-78.648
-55.1248
-16.4127
38.81
106.376
186.284
276.303
373.506
474.84
577.97
679.695
776.25
864.424
943.187
1014.29
1079.26
1138.85
1196.11
1247.36
1289.95
1324.68
1352.95
1375.83
1394.78
1411.8
1427.91
1444.11
1461.54
1481.78
1506.84
1531.41
1538.15
1517.46
1494.57
1494.98
1531.34
1579.94
1618.12
1638.93
1650.22
1657.48
1660.99
1658.22
1648.23
1633.88
1619.46
1611.17
1610.49
1613.79
1615.24
1609.27
1595.73
1580.3
1567.63
1556.75
1545.06
1527.4
1498.69
1461.2
1422.79
1388.87
1360.94
1331.69
1293.56
1251.41
1210.77
1172.47
1174.45
1195.7
1206.08
1167.37
1071.29
958.399
870.427
810.59
754.687
693.067
634.849
595.71
554.134
494.988
414.103
315.211
209.477
120.578
56.2861
10.0189
-18.1904
-28.7951
-33.045
-44.0433
-63.8737
-85.4327
-100.125
-107.226
-110.876
-116.358
-129.174
-148.147
-106.972
2312.06
2435.43
3743.79
4004.45
3727.36
3580.23
3606.84
3658.38
3669.99
3659.5
3652.46
3653.24
3656.01
3657.3
3657.48
3657.76
3658.46
3659.37
3660.33
3661.34
3662.46
3663.73
3665.16
3666.74
3668.5
3670.45
3672.61
3674.99
3677.61
3680.48
3683.62
3687.03
3690.72
3694.69
3698.93
3703.43
3708.15
3713.07
3718.15
3723.35
3728.63
3733.94
3739.25
3744.5
3749.64
3754.63
3759.48
3764.37
3769.68
3776.27
3785.57
3799.34
3818.07
3837.76
3838.38
3756.97
3623.53
3363.69
2904.81
2856.34
2867.37
2423.42
2164.44
2262.88
2561.14
2772.65
2725.61
2522.43
2282.96
2021.54
1784.38
1570.08
1541.33
1618.36
1682.28
1691.26
1699.41
1683.94
1686.11
1671.21
1641.29
1581.01
1395.6
1087.58
937.557
1040.9
1244.76
1391.66
1394.42
1322.64
1383.45
1520.21
1493.77
1282.64
1193.64
1214.14
1244.7
1251.65
1162.46
1041.91
913.731
839.227
794.229
744.73
688.697
643.534
589.756
514.402
496.71
556.874
646.205
697.265
704.081
684.709
671.322
704.249
774.952
846.497
879.244
867.59
836.797
794.557
749.474
715.232
697.217
687.855
676.713
659.688
641.862
625.684
608.981
588.636
563.871
533.152
494.213
449.113
403.311
358.068
313.158
271.212
230.823
183.706
132.009
81.5871
41.1213
17.6532
13.6114
9.26049
-9.22857
-44.0294
-90.1151
-126.471
-134.093
-106.849
-46.6563
35.9819
133.826
253.535
398.28
553.974
697.242
822.051
922.023
996.285
1043.03
1092.51
1164.11
1246.02
1316.12
1358.77
1383.47
1398.97
1407.72
1412.12
1414.05
1414.71
1415.36
1421.39
1441.92
1481.8
1523.78
1532.11
1517.41
1537.73
1603.13
1664.53
1693.7
1699.25
1694.87
1692.24
1686.76
1674.14
1663.61
1661.35
1667.12
1674.2
1684.98
1694.28
1695.2
1685.13
1664.29
1639.57
1624.93
1621.7
1611.01
1583.49
1539.31
1499.98
1480.68
1481.49
1481.63
1475.06
1435.11
1380.28
1334.02
1235.73
795.545
821.251
1214.97
1430.01
1339.14
1083.23
1056.34
1062.74
1057.82
993.887
802.548
427.532
431.857
535.836
542.11
454.16
312.399
118.935
-81.0799
-195.456
-222.266
-196.763
-136.573
-84.059
-87.3532
-148.217
-213.618
-233.6
-205.724
-166.857
-138.938
-142.81
-180.021
-143.473
2310.94
2433.46
3742.43
4003.56
3726.56
3579.36
3605.89
3657.38
3668.96
3658.41
3651.31
3652
3654.67
3655.83
3655.88
3655.99
3656.5
3657.2
3657.91
3658.64
3659.44
3660.34
3661.35
3662.46
3663.68
3665.03
3666.51
3668.12
3669.89
3671.8
3673.87
3676.09
3678.45
3680.95
3683.55
3686.23
3688.94
3691.62
3694.21
3696.59
3698.68
3700.33
3701.43
3701.86
3701.5
3700.31
3698.26
3695.38
3691.72
3687.14
3681.22
3672.19
3657.17
3627.38
3577.21
3482.81
3384.73
3345.86
3218.06
2850.43
2455.98
2165.8
1977.4
2164.06
2179.15
2069.47
1906.43
2015.65
2084.87
1945.16
1890.45
1614.44
1493.41
1733.49
1857.27
1684.33
1602.98
1725.61
1812.44
1724.74
1535.67
1419.93
1361.09
1307.92
1022.33
723.889
1005.39
1445.88
1782.99
1947.3
1468.75
1217.34
1010.34
1047.56
1163.43
1267.53
1293.46
1220.81
964.095
809.216
740.521
706.793
668.195
618.665
585.76
586.548
588.109
559.36
497.348
506.098
571.684
630.143
629.851
622.295
708.623
886.121
914.495
900.366
859.056
808.784
765.382
719.102
698.696
686.216
683.529
677.527
665.898
651.973
638.556
622.534
607.258
590.266
569.161
544.162
516.975
489.583
460.606
425.1
380.27
321.651
244.478
148.174
52.4571
-41.1318
-139.315
-237.285
-328.91
-400.516
-431.093
-422.254
-435.172
-438.04
-371.036
-260.474
-125.926
30.7095
214.084
392.98
532.414
653.057
780.466
889.593
967.529
1058.29
1157.3
1258.65
1342.85
1381.78
1399.51
1402.74
1402.48
1399.85
1400.8
1404.42
1406.14
1407
1409.41
1413.16
1423.19
1446.77
1442.49
1455.79
1512.95
1592.25
1670.74
1712.75
1712.85
1703.7
1699.49
1696.72
1687.21
1674.53
1668
1671.09
1685.14
1703.1
1718.59
1726.39
1721.75
1702.86
1675.18
1652.19
1637.77
1628.48
1615.75
1590.93
1552.83
1522.68
1515.5
1522.16
1528.5
1523.5
1489.94
1441.99
1404.8
1368.52
1310.27
1287.38
1338.12
1211.46
1085.52
1118.41
1148.9
1152.32
1130.97
1094.73
1046.97
992.245
958.67
815.94
637.699
450.525
250.273
143.979
30.1261
-94.1811
-199.974
-269.486
-180.747
-97.3423
-83.8989
-202.644
-239.399
-240.323
-235.248
-181.61
-126.932
-189.351
-379.578
-297.113
2310.31
2432.62
3742.06
4003.34
3726.24
3578.93
3605.42
3656.9
3668.45
3657.84
3650.66
3651.27
3653.84
3654.88
3654.79
3654.75
3655.08
3655.57
3656.05
3656.51
3657
3657.56
3658.17
3658.83
3659.54
3660.3
3661.12
3661.98
3662.89
3663.83
3664.8
3665.78
3666.75
3667.68
3668.55
3669.29
3669.87
3670.2
3670.22
3669.83
3668.9
3667.32
3664.93
3661.53
3656.93
3650.86
3643
3632.93
3620.1
3603.71
3582.63
3555.12
3519.06
3470.61
3406.13
3318.77
3201.95
3061.5
2846.92
2682.08
2652.71
2709.56
2680.84
2439.75
2012.79
1646.84
1506.68
1492.92
1700.36
1829.48
1867.31
1874.37
1883.08
1830.79
1729.65
1617.97
1520.67
1516.06
1495.35
1410.43
1380.98
1393.87
1433.64
1470.01
1447.47
1160.57
928.248
1436.34
1851.21
1769.31
1558.63
1313.89
961.875
641.178
697.264
891.88
1006.34
1039.06
979.548
860.72
728.169
687.987
658.517
613.687
563.132
548.147
567.146
591.782
610.489
599.178
616.677
564.613
486.889
600.095
840.506
1006.42
989.445
858.797
780.096
725.057
693.346
687.034
691.153
699.675
695.886
675.382
656.902
644.35
632.407
617.105
600.223
582.424
561.507
537.549
514.812
494.184
465.917
426.818
376.199
305.478
211.429
103.461
-0.553354
-102.051
-205.619
-312.934
-412.381
-483.677
-502.136
-466.395
-393.162
-308.519
-213.502
-104.928
21.5092
167.617
325.171
485.915
594.21
665.313
768.885
858.923
921.442
1030.91
1167.5
1295.54
1378.31
1394.15
1390.66
1392.71
1396.9
1397.82
1400.87
1406.03
1409.05
1410.53
1411.82
1412.55
1413.22
1415.21
1418.21
1421.94
1429.41
1469.37
1536.97
1601.98
1658.39
1694.73
1706.92
1704.88
1688.55
1669.7
1672.22
1682.4
1682.63
1677.64
1677.87
1679.17
1677.52
1672.72
1663.24
1649.35
1634.25
1618.89
1604.48
1593.65
1585.49
1575.19
1560.25
1545.65
1538.61
1543.97
1555.5
1567.18
1581.04
1595.84
1629.73
1575.29
1121.67
905.242
899.151
930.499
985.463
1041.23
1082.12
1103.37
1117.06
1120.26
1017.27
682.524
521.369
413.97
295.838
213.45
147.737
72.2072
1.79373
-57.7134
-73.3972
-103.29
-154.263
-189.93
-169.626
-147.218
-185.866
-87.3639
-41.9846
-97.3261
-326.074
-334.433
2309.56
2431.42
3741.28
4002.75
3725.55
3578.12
3604.55
3656
3667.49
3656.8
3649.52
3650.02
3652.46
3653.37
3653.12
3652.89
3653.01
3653.27
3653.48
3653.63
3653.78
3653.95
3654.12
3654.28
3654.44
3654.57
3654.69
3654.76
3654.8
3654.76
3654.64
3654.42
3654.05
3653.5
3652.73
3651.68
3650.29
3648.47
3646.14
3643.19
3639.5
3634.92
3629.27
3622.35
3613.92
3603.67
3591.24
3576.17
3557.89
3535.67
3508.58
3475.44
3434.74
3384.51
3321.97
3244.58
3147.88
3034.46
2903.37
2783.16
2662.32
2500.5
2275.42
2077.53
1954.09
1902.87
1923.45
1951.33
1958.51
1982.49
2024.88
2075.6
2055.38
1905.5
1721.17
1610.22
1505.34
1314.87
1245.73
1271.35
1278.62
1296
1266.36
1307.74
1378.18
1402.63
1422.13
1306.16
1211.18
1257.71
1276.57
1283.89
1266.46
1143.54
714.913
676.703
942.753
1063.17
1004.05
850.196
639.538
616.643
630.076
631.972
614.072
604.371
623.538
628.895
653.277
662.864
646.877
592.927
510.839
338.219
482.741
782.57
815.97
801.946
785.553
777.36
762.601
711.873
658.544
630.587
628.505
634.913
637.641
632.318
624.347
617.344
606.753
590.055
572.67
557.466
541.386
519.576
491.47
450.584
386.427
310.362
224.807
96.1811
19.7144
-49.4559
-132.143
-223.176
-319.768
-413.45
-484.564
-520.114
-510.105
-454.437
-367.589
-259.624
-125.322
55.2032
288.277
565.529
659.125
708.309
769.169
833.728
902.272
1006.26
1150.1
1256.58
1313.93
1340.64
1358.81
1375.78
1389.25
1397.94
1402.94
1405.15
1404.29
1402.48
1403.84
1411.29
1424.78
1444.29
1466.49
1481.96
1488.39
1498.05
1525.47
1573.78
1638.54
1672.6
1686.56
1697.49
1700.75
1683.74
1655.05
1647.23
1658.05
1675.96
1695.95
1718
1736.8
1739.77
1710.62
1675.44
1644.17
1619.11
1600.16
1584.62
1570.28
1556.48
1541.2
1526.28
1511
1487.96
1459.84
1429.63
1394.57
1350.51
1281.92
1183.17
1097.9
1054.06
1045.03
1053.36
1072.64
1099.55
1110.36
1092.21
1046.78
976.627
878.686
776.9
690.836
579.118
420.39
269.292
135.291
63.409
-3.41308
-55.4534
-62.8034
-117.397
-148.816
-164.893
-172.413
-186.735
-182.611
-94.4297
-57.4996
-63.3423
-60.5963
-55.0794
2308.84
2430.33
3740.64
4002.31
3725.02
3577.48
3603.87
3655.29
3666.73
3655.97
3648.61
3649
3651.34
3652.12
3651.71
3651.31
3651.23
3651.26
3651.22
3651.08
3650.9
3650.7
3650.46
3650.16
3649.79
3649.35
3648.81
3648.15
3647.37
3646.44
3645.31
3643.97
3642.38
3640.48
3638.22
3635.54
3632.37
3628.62
3624.19
3618.97
3612.82
3605.6
3597.12
3587.18
3575.53
3561.88
3545.91
3527.19
3505.27
3479.56
3449.39
3413.92
3372.19
3323.14
3265.61
3198.89
3122.43
3036.38
2939.36
2828.85
2703.69
2570.04
2440.71
2334.86
2245.11
2153.37
2059.61
1971.56
1912.72
1891.93
1883.69
1861.93
1813.39
1729.76
1632.81
1547.11
1469.35
1398.29
1358.41
1356.48
1369.15
1382.98
1395.84
1448.01
1582.42
1716.48
1688.61
1518.74
1359.12
1272.99
1267.83
1315.13
1365.92
1321.7
1100.18
743.437
701.195
793.315
845.491
822.978
688.861
531.051
549.391
574.112
574.043
560.714
555.26
543.211
539.996
589.163
633.91
671.213
679.816
620.901
487.41
597.638
726.282
784.069
784.346
772.102
762.349
742.093
707.632
660.853
640.147
643.396
643.317
640.228
632.724
622.551
611.457
590.429
561.47
534.198
509.393
486.629
464.368
432.347
381.945
319.886
240.847
122.158
0.0645442
-93.4746
-177.382
-268.844
-368.889
-467.092
-540.773
-567.21
-546.249
-491.396
-404.969
-287.359
-143.916
17.0441
184.06
342.571
488.222
622.481
745.022
866.609
990.837
1096.67
1173.42
1230.02
1278.57
1328.88
1370.16
1393.33
1408.05
1420.61
1426.56
1424.56
1420.05
1415.73
1412.95
1417.47
1432.22
1453.75
1478.93
1505.95
1530.33
1542.56
1553.74
1575.67
1602.44
1634.6
1676.73
1715.08
1732.22
1717.78
1657.33
1601.93
1614.55
1641.34
1653.1
1655.44
1657.54
1654.26
1648.26
1634.6
1620.9
1607.28
1587.7
1562.57
1541.25
1523.42
1507.02
1490.62
1471.81
1450.74
1429.97
1409.81
1391.96
1374.27
1346.95
1295.87
1220.87
1147.88
1100.75
1081.52
1086.2
1107.55
1121.29
1104.35
1055.57
980.312
880.665
754.448
618.691
488.994
354.443
222.745
105.848
12.5411
-58.2323
-101.424
-126.849
-155.326
-179.574
-189.459
-184.127
-155.663
-108.431
-59.2355
-18.1049
9.93442
56.2759
73.3235
2308.17
2429.29
3740.01
4001.86
3724.47
3576.8
3603.12
3654.51
3665.9
3655.06
3647.6
3647.89
3650.11
3650.75
3650.19
3649.61
3649.34
3649.15
3648.86
3648.45
3647.96
3647.41
3646.77
3646.04
3645.18
3644.19
3643.05
3641.73
3640.21
3638.46
3636.44
3634.11
3631.43
3628.35
3624.8
3620.72
3616.02
3610.62
3604.42
3597.3
3589.13
3579.75
3569
3556.66
3542.52
3526.31
3507.73
3486.43
3462.02
3434.04
3401.99
3365.32
3323.43
3275.75
3221.74
3160.98
3093.22
3018.36
2936.93
2850.1
2760.83
2671.88
2582.95
2491.32
2395.95
2300.59
2213.23
2141.46
2087.41
2043.99
2001.32
1952.91
1896.92
1831.99
1759.3
1684.69
1615.21
1552.69
1500.71
1465.53
1445.19
1433.84
1429.9
1436.25
1447.12
1440.28
1402.52
1341.65
1288.29
1265.83
1273.26
1287.3
1288.73
1263.57
1132.91
956.472
877.351
904.698
978.672
1062.41
980.641
657.213
374.508
377.162
509.218
586.748
630.167
675.183
690.01
678.093
676.456
711.156
778.647
837.571
768.76
633.652
603.042
678.591
742.5
757.706
755.38
747.343
719.404
671.04
630.205
614.663
618.926
631.23
632.568
622.44
612.223
597.673
574.064
544.39
512.409
482.095
450.429
408.238
356.545
297.279
224.288
123.518
6.89949
-106.336
-214.038
-324.178
-438.01
-550.899
-644.067
-684.771
-654.005
-576.142
-471.828
-342.396
-189.56
-19.7833
159.49
332.07
481.743
611.602
730.236
842.832
948.441
1044.02
1127.48
1199.8
1258.8
1303.74
1335.66
1357.7
1374.16
1386.78
1395.45
1401.04
1405.61
1410.76
1417.69
1427.6
1440.54
1455.31
1470.72
1486.16
1502.17
1520.29
1542.98
1572.06
1606.89
1644.86
1683.12
1718.98
1743.74
1759.86
1742.17
1709.63
1688.08
1676.55
1664.84
1649.93
1631.88
1622.05
1627.31
1619.38
1603.69
1588.39
1567.86
1542.46
1517.42
1494.85
1473.46
1452.4
1431.39
1412.97
1397.28
1379.89
1359.65
1336.14
1305.71
1261.54
1208.9
1164.86
1139.96
1129.54
1123.71
1123.24
1116.01
1092.55
1046.61
973.429
872.755
746.664
607.471
460.895
309.039
163.612
31.1538
-84.1748
-169.455
-208.602
-209.26
-199.877
-208.842
-225.549
-230.163
-218.315
-186.588
-141.975
-100.24
-68.8027
-42.5213
-6.97476
2307.58
2428.38
3739.44
4001.46
3723.99
3576.21
3602.48
3653.85
3665.2
3654.29
3646.75
3646.95
3649.07
3649.6
3648.91
3648.18
3647.74
3647.36
3646.85
3646.2
3645.44
3644.59
3643.62
3642.51
3641.23
3639.78
3638.12
3636.23
3634.08
3631.63
3628.85
3625.69
3622.1
3618.02
3613.39
3608.14
3602.18
3595.43
3587.79
3579.13
3569.33
3558.25
3545.71
3531.55
3515.54
3497.47
3477.07
3454.06
3428.12
3398.93
3366.1
3329.27
3288.06
3242.12
3191.15
3134.95
3073.5
3007.03
2936.13
2861.6
2784.15
2704.03
2621.58
2538.12
2456.47
2379.32
2307.94
2242.03
2180.09
2120.65
2062.78
2005.31
1946.71
1885.75
1822.68
1760.02
1701
1647.33
1600.5
1562.42
1533.09
1510.38
1492.17
1477.19
1464.6
1452.05
1434.24
1406.37
1371.07
1335.58
1302.53
1268.3
1226.3
1170.44
1092.79
1008.69
947.368
917.866
894.953
848.919
765.151
660.503
601.59
612.533
636.218
635.682
620.654
613.35
620.427
634.335
650.146
665.584
674.898
674.682
662.458
655.704
682.858
724.364
745.801
746.106
737.458
726.049
709.386
687.389
670.015
666.568
673.103
665.901
633.831
602.61
597.028
609.011
612.334
585.941
536.569
484.584
435.384
395.637
363.679
316.864
247.635
161.569
65.208
-47.6089
-170.232
-278.899
-365.906
-437.001
-487.196
-502.572
-490.284
-442.448
-367.17
-268.246
-147.387
-10.3499
136.103
282.774
421.35
551.066
673.026
786.533
890.146
982.066
1060.7
1125.96
1179.25
1223.21
1260.1
1290.91
1316.31
1337.36
1355.04
1370.14
1383.5
1396.1
1408.77
1422.22
1436.97
1453.21
1470.72
1489.18
1508.15
1526.97
1545.38
1563.6
1581.3
1597.58
1611.75
1621.68
1633.02
1634.54
1626.12
1616.11
1611.55
1612.27
1614.67
1617.35
1619.69
1616.5
1603.42
1583.04
1563.48
1547.65
1531.6
1512.25
1490.62
1468.47
1446.56
1426.38
1408.22
1391.64
1376.71
1363.17
1351.48
1340.24
1320.26
1291.47
1262.09
1236.95
1218.1
1199.44
1171.19
1132.95
1096.6
1057.04
995.082
911.357
813.852
707.881
592.121
462.075
320.002
176.878
50.447
-51.1021
-126.935
-176.436
-208.516
-234.168
-255.71
-264.372
-254.761
-226.824
-186.667
-139.387
-93.0506
-54.457
-26.0793
-1.38446
2307.09
2427.61
3738.97
4001.13
3723.59
3575.72
3601.94
3653.28
3664.59
3653.62
3646.01
3646.13
3648.16
3648.59
3647.8
3646.94
3646.35
3645.81
3645.12
3644.27
3643.28
3642.18
3640.93
3639.51
3637.89
3636.06
3633.98
3631.63
3628.97
3625.96
3622.57
3618.74
3614.43
3609.56
3604.09
3597.92
3590.99
3583.2
3574.45
3564.63
3553.62
3541.27
3527.44
3511.95
3494.64
3475.29
3453.7
3429.63
3402.83
3373.04
3340.01
3303.46
3263.16
3218.89
3170.49
3117.88
3061.08
3000.24
2935.63
2867.61
2796.69
2723.64
2649.5
2575.41
2502.29
2430.62
2360.56
2292.44
2226.7
2163.63
2102.96
2043.8
1985.25
1926.94
1869.23
1813.01
1759.41
1709.37
1663.53
1622.28
1585.59
1552.81
1522.99
1495.28
1468.73
1441.61
1411.33
1376.36
1337.96
1299.07
1261.53
1224.73
1186.38
1144.47
1098.02
1048
999.719
958.531
923.152
888.706
852.353
812.225
771.452
738.393
718.655
710.538
709.573
712.585
715.856
717.287
717.383
718.372
720.842
722.13
720.568
715.955
711.018
707.924
705.465
701.153
693.989
684.456
672.733
658.973
644.641
631.363
618.718
604.83
590.379
578.386
568.345
554.475
531.746
500.458
465.609
431.21
397.156
360.938
317.119
262.152
197.227
124.747
48.4079
-29.1529
-105.141
-176.257
-239.926
-290.1
-319.118
-322.152
-298.959
-249.686
-178.128
-88.1673
16.374
130.875
250.596
370.83
487.311
597.214
698.871
791.707
875.893
951.527
1018.55
1077.37
1128.84
1173.76
1212.68
1246.12
1274.85
1299.84
1321.92
1341.73
1359.89
1377
1393.62
1410.1
1426.67
1443.34
1459.95
1476.37
1492.58
1508.69
1524.89
1541.34
1557.93
1574.23
1589.44
1602.8
1611.56
1617.85
1621.03
1621.15
1619.66
1617.26
1613.47
1607.69
1599.72
1589.72
1578.74
1567.25
1554.02
1538.76
1522.52
1505.22
1486.58
1467.35
1448.15
1428.91
1409.48
1390.33
1371.69
1352.86
1332.99
1311.35
1287.5
1262.5
1236.99
1211.77
1189.16
1170.82
1152.84
1123.59
1079.46
1024.38
956.787
874.17
781.916
687.03
584.226
470.492
349.491
228.693
116.399
17.8109
-63.9957
-125.082
-166.027
-190.956
-202.885
-204.163
-196.948
-181.25
-158.104
-129.691
-100.315
-72.5696
-43.9951
-16.7791
2306.73
2427.04
3738.62
4000.89
3723.3
3575.35
3601.53
3652.86
3664.14
3653.13
3645.46
3645.53
3647.5
3647.86
3646.97
3646.02
3645.34
3644.68
3643.86
3642.85
3641.7
3640.41
3638.96
3637.31
3635.44
3633.33
3630.94
3628.26
3625.23
3621.82
3617.98
3613.67
3608.83
3603.41
3597.32
3590.51
3582.88
3574.35
3564.82
3554.18
3542.32
3529.1
3514.39
3498.02
3479.85
3459.68
3437.34
3412.64
3385.36
3355.3
3322.27
3286.07
3246.52
3203.5
3156.9
3106.69
3052.91
2995.68
2935.25
2871.96
2806.27
2738.73
2669.92
2600.36
2530.58
2461.14
2392.65
2325.67
2260.56
2197.35
2135.82
2075.66
2016.65
1958.81
1902.31
1847.51
1794.89
1744.95
1698.04
1654.37
1613.92
1576.41
1541.3
1507.89
1475.41
1443.04
1410.01
1375.87
1340.64
1304.67
1268.16
1230.81
1191.91
1150.89
1107.67
1063.01
1019.1
978.422
941.338
905.733
869.213
831.364
795.461
766.999
747.937
734.622
722.418
710.087
699.354
692.554
688.556
685.608
682.589
679.741
676.205
672.066
668.983
667.858
667.291
664.975
659.852
652.356
643.12
632.423
620.717
608.805
597.103
584.95
571.06
554.822
536.761
517.474
496.651
473.205
446.208
415.564
381.555
344.325
304.047
260.926
214.867
166.292
116.555
67.1025
19.7469
-22.4276
-55.8019
-77.97
-87.1609
-81.1493
-57.4545
-17.6369
36.3212
102.553
178.908
262.806
351.403
441.798
531.382
618.263
701.274
779.693
852.977
920.713
982.65
1038.73
1089.11
1134.1
1174.2
1209.99
1242.04
1270.9
1297.07
1320.99
1343.1
1363.8
1383.42
1402.25
1420.49
1438.28
1455.68
1472.72
1489.35
1505.47
1520.9
1535.43
1548.84
1560.83
1571.11
1579.41
1585.89
1590.2
1592.45
1592.65
1591.56
1589.61
1586.69
1582.55
1577.04
1569.94
1560.93
1549.81
1536.77
1522.3
1506.73
1490.07
1472.37
1453.85
1434.79
1415.35
1395.67
1375.83
1355.8
1335.41
1314.5
1292.87
1270.12
1245.95
1220.38
1193.73
1166.06
1136.51
1102.93
1063.13
1017.17
966.707
911.62
847.036
769.665
683.837
591.822
493.252
393.929
299.905
208.229
117.88
38.1859
-24.8002
-70.8478
-103.516
-125.294
-137.033
-139.726
-134.116
-120.055
-99.435
-75.7905
-51.8788
-27.5695
-10.9218
2306.51
2426.69
3738.39
4000.74
3723.12
3575.12
3601.27
3652.59
3663.86
3652.83
3645.13
3645.15
3647.08
3647.39
3646.46
3645.45
3644.7
3643.96
3643.06
3641.96
3640.71
3639.31
3637.73
3635.94
3633.91
3631.63
3629.06
3626.16
3622.9
3619.25
3615.14
3610.54
3605.39
3599.62
3593.17
3585.96
3577.92
3568.95
3558.96
3547.85
3535.49
3521.76
3506.54
3489.67
3471.01
3450.39
3427.65
3402.61
3375.1
3344.95
3311.97
3276.03
3236.98
3194.72
3149.19
3100.38
3048.33
2993.18
2935.12
2874.43
2811.46
2746.61
2680.34
2613.14
2545.53
2478.05
2411.15
2345.19
2280.41
2216.93
2154.83
2094.13
2034.87
1977.13
1921.02
1866.76
1814.61
1764.84
1717.64
1673.06
1631.01
1591.26
1553.4
1516.96
1481.41
1446.22
1410.87
1374.92
1338.08
1300.31
1261.73
1222.44
1182.48
1141.9
1100.97
1060.26
1020.56
982.634
946.794
912.82
880.589
850.634
823.967
801.414
783.012
768.164
756.31
747.08
739.534
732.892
727.166
722.057
717.185
712.457
707.159
701.285
695.17
688.657
681.616
673.771
664.702
654.386
642.996
630.706
617.705
604.143
589.982
574.952
558.786
541.522
523.315
503.888
482.458
458.304
431.329
402.034
370.964
338.349
304.135
268.161
230.52
191.917
153.595
117.006
83.7344
55.5344
34.202
21.3452
18.5827
27.8145
49.5165
83.6472
129.511
185.699
250.4
321.634
397.338
475.457
554.092
631.633
706.806
778.65
846.483
909.861
968.531
1022.41
1071.6
1116.34
1156.96
1193.81
1227.25
1257.65
1285.41
1310.91
1334.5
1356.51
1377.22
1396.86
1415.6
1433.56
1450.78
1467.3
1483.1
1498.16
1512.45
1525.93
1538.52
1550.08
1560.47
1569.46
1576.81
1582.37
1585.93
1587.87
1588.19
1586.87
1583.91
1579.22
1572.71
1564.27
1554.11
1542.51
1529.49
1515.12
1499.57
1483.01
1465.63
1447.58
1429
1410.01
1390.68
1370.96
1350.79
1330.04
1308.5
1285.91
1262.05
1236.73
1209.82
1181.16
1150.52
1117.55
1081.58
1041.6
996.611
945.99
889.071
825.044
754.357
678.735
598.911
516.134
433.226
352.244
273.834
199.713
133.169
76.5024
30.6525
-5.92846
-33.8342
-51.2337
-59.2571
-61.1616
-58.0046
-51.1918
-40.8972
-29.118
-15.5885
-7.74015
2306.44
2426.58
3738.32
4000.69
3723.07
3575.05
3601.19
3652.5
3663.77
3652.73
3645.01
3645.03
3646.94
3647.24
3646.29
3645.27
3644.49
3643.73
3642.8
3641.67
3640.39
3638.95
3637.33
3635.49
3633.41
3631.07
3628.44
3625.47
3622.14
3618.41
3614.21
3609.51
3604.25
3598.37
3591.8
3584.47
3576.29
3567.17
3557.03
3545.75
3533.23
3519.34
3503.94
3486.91
3468.09
3447.33
3424.46
3399.32
3371.73
3341.55
3308.6
3272.75
3233.87
3191.87
3146.69
3098.34
3046.86
2992.37
2935.06
2875.18
2813.07
2749.1
2683.72
2617.42
2550.65
2483.86
2417.44
2351.74
2287.03
2223.53
2161.41
2100.73
2041.57
1983.98
1928.08
1874.05
1822.08
1772.36
1725.01
1680.04
1637.34
1596.69
1557.77
1520.16
1483.39
1446.99
1410.5
1373.55
1335.93
1297.64
1258.78
1219.45
1179.73
1139.7
1099.64
1060.04
1021.57
984.865
950.312
917.975
887.816
859.924
834.544
811.938
792.247
775.215
760.197
746.618
734.497
723.416
713.103
703.58
694.807
686.608
678.658
671.35
664.33
657.446
650.314
642.55
634.159
625.037
614.887
603.678
591.799
579.41
566.445
552.742
538.092
522.268
505.039
486.199
465.574
443.072
418.686
392.462
364.481
334.862
303.817
271.713
239.114
206.79
175.719
147.06
122.112
102.294
89.0786
83.8094
87.4601
100.499
123.355
155.381
196.902
246.862
303.72
366.026
432.332
501.149
571.049
640.767
709.236
775.583
839.114
899.31
955.817
1008.43
1057.11
1101.89
1142.97
1180.56
1214.96
1246.5
1275.51
1302.31
1327.23
1350.52
1372.43
1393.14
1412.78
1431.45
1449.21
1466.09
1482.09
1497.19
1511.35
1524.49
1536.48
1547.17
1556.38
1564.02
1570.01
1574.35
1577.02
1578.06
1577.49
1575.37
1571.75
1566.64
1560.05
1552.03
1542.34
1530.78
1517.5
1502.76
1486.82
1469.91
1452.28
1434.17
1415.79
1397.14
1378.72
1359.77
1340.33
1320.37
1299.69
1278.05
1255.09
1230.41
1203.67
1174.66
1143.12
1108.76
1071.16
1029.69
983.759
933.003
877.178
816.046
749.646
678.581
603.786
526.574
448.828
372.494
299.25
230.666
168.707
115.089
70.7175
35.8019
9.60075
-8.82903
-20.2105
-25.7543
-26.645
-24.177
-19.4557
-13.8188
-6.8037
-3.99909
2306.52
2426.71
3738.41
4000.75
3723.13
3575.13
3601.29
3652.6
3663.87
3652.84
3645.14
3645.16
3647.09
3647.41
3646.48
3645.47
3644.71
3643.98
3643.08
3641.98
3640.73
3639.33
3637.75
3635.96
3633.94
3631.65
3629.08
3626.18
3622.93
3619.27
3615.17
3610.57
3605.41
3599.65
3593.2
3585.99
3577.95
3568.98
3558.99
3547.87
3535.51
3521.78
3506.55
3489.68
3471.01
3450.39
3427.64
3402.6
3375.08
3344.92
3311.94
3275.99
3236.94
3194.68
3149.16
3100.36
3048.33
2993.2
2935.16
2874.51
2811.59
2746.79
2680.58
2613.44
2545.9
2478.49
2411.66
2345.76
2281.04
2217.61
2155.54
2094.88
2035.66
1977.95
1921.89
1867.69
1815.62
1765.96
1718.86
1674.38
1632.4
1592.64
1554.68
1518
1482.05
1446.28
1410.12
1373.12
1334.97
1295.63
1255.25
1214.01
1172.09
1129.8
1087.74
1046.81
1007.85
971.278
937.166
905.634
877.074
851.966
830.498
812.4
797.094
784.005
772.664
762.646
753.543
744.964
736.637
728.414
720.209
711.972
703.664
695.259
686.604
677.463
667.579
656.705
644.71
631.773
618.486
605.301
592.11
578.694
564.792
550.209
534.837
518.622
501.274
482.475
462.046
439.955
416.205
390.862
364.108
336.173
307.206
277.365
247.066
217.08
188.458
162.363
139.871
122.038
109.932
104.609
107.019
118.022
138.179
168.068
206.294
252.164
304.999
363.677
426.874
493.264
561.549
630.473
698.866
765.691
830.068
891.292
948.856
1002.47
1052.04
1097.63
1139.44
1177.71
1212.77
1244.92
1274.49
1301.77
1327.08
1350.7
1372.86
1393.77
1413.55
1432.31
1450.13
1467.06
1483.14
1498.34
1512.6
1525.84
1537.94
1548.76
1558.18
1566.11
1572.49
1577.29
1580.47
1581.97
1581.77
1579.85
1576.2
1570.82
1563.64
1554.52
1543.31
1529.98
1514.87
1498.54
1481.48
1463.97
1446.12
1427.97
1409.61
1391.33
1372.73
1354.38
1335.83
1316.65
1296.66
1276.1
1254.5
1231.17
1205.08
1176.11
1143.9
1108.29
1069.3
1026.68
979.817
928.192
871.382
809.141
741.664
669.726
594.553
517.706
441.022
366.477
295.899
230.806
172.857
123.463
83.0649
51.237
27.5931
11.343
1.40386
-3.61051
-5.11166
-4.4485
-2.79579
-1.28047
0.651161
-0.821332
2306.75
2427.08
3738.64
4000.9
3723.32
3575.37
3601.55
3652.88
3664.16
3653.16
3645.49
3645.55
3647.52
3647.88
3647
3646.05
3645.37
3644.71
3643.89
3642.89
3641.74
3640.45
3639
3637.36
3635.49
3633.38
3630.99
3628.31
3625.28
3621.87
3618.04
3613.73
3608.89
3603.46
3597.38
3590.56
3582.93
3574.4
3564.87
3554.23
3542.36
3529.14
3514.41
3498.04
3479.85
3459.68
3437.33
3412.61
3385.31
3355.25
3322.2
3285.99
3246.44
3203.41
3156.82
3106.63
3052.88
2995.7
2935.33
2872.11
2806.52
2739.09
2670.4
2600.98
2531.35
2462.05
2393.7
2326.85
2261.85
2198.73
2137.26
2077.15
2018.2
1960.42
1904.02
1849.36
1796.96
1747.29
1700.69
1657.29
1617.03
1579.58
1544.34
1510.58
1477.43
1443.98
1409.35
1373.02
1334.99
1295.66
1255.23
1213.31
1169.24
1122.85
1075.44
1030.22
989.988
954.56
921.56
889.237
858.187
831.175
810.704
796.276
784.724
772.973
759.902
746.046
732.559
720.34
709.489
699.489
689.911
680.831
672.591
665.375
658.927
652.44
644.825
635.385
624.125
611.454
598.122
585.174
573.307
562.312
551.23
539.14
525.821
511.5
496.292
479.738
461.33
440.836
418.135
393.243
366.578
338.855
310.479
281.366
251.427
221.071
191.474
164.332
140.852
122.521
110.279
104.846
107.104
117.71
136.974
164.825
200.809