/*--------------------------------*- C++ -*----------------------------------*\
| =========                 |                                                 |
| \\      /  F ield         | OpenFOAM: The Open Source CFD Toolbox           |
|  \\    /   O peration     | Version:  2406                                  |
|   \\  /    A nd           | Website:  www.openfoam.com                      |
|    \\/     M anipulation  |                                                 |
\*---------------------------------------------------------------------------*/
FoamFile
{
    version     2.0;
    format      ascii;
    arch        "LSB;label=32;scalar=64";
    class       surfaceScalarField;
    location    "0.2";
    object      phi;
}
// * * * * * * * * * * * * * * * * * * * * * * * * * * * * * * * * * * * * * //

dimensions      [0 3 -1 0 0 0 0];

oriented        oriented;

internalField   nonuniform List<scalar> 
12225
(
2.64428e-05
9.71351e-09
2.64148e-05
2.79671e-08
2.63861e-05
2.87738e-08
2.63622e-05
2.38309e-08
2.63364e-05
2.5835e-08
2.63055e-05
3.09353e-08
2.62708e-05
3.46752e-08
2.62339e-05
3.68527e-08
2.6195e-05
3.89547e-08
2.61533e-05
4.17053e-08
2.61084e-05
4.48936e-08
2.60601e-05
4.82747e-08
2.60082e-05
5.18876e-08
2.59523e-05
5.58882e-08
2.58919e-05
6.03917e-08
2.58265e-05
6.5468e-08
2.57553e-05
7.1194e-08
2.56776e-05
7.76744e-08
2.55926e-05
8.5035e-08
2.54992e-05
9.34146e-08
2.53962e-05
1.02967e-07
2.52823e-05
1.13867e-07
2.5156e-05
1.26318e-07
2.50154e-05
1.40552e-07
2.48586e-05
1.56835e-07
2.46831e-05
1.75471e-07
2.44863e-05
1.96802e-07
2.42651e-05
2.21219e-07
2.4016e-05
2.49154e-07
2.37349e-05
2.81093e-07
2.34173e-05
3.17561e-07
2.30582e-05
3.5913e-07
2.26518e-05
4.06395e-07
2.21918e-05
4.59965e-07
2.16714e-05
5.20427e-07
2.10831e-05
5.88302e-07
2.04191e-05
6.63977e-07
1.96715e-05
7.47619e-07
1.88324e-05
8.39095e-07
1.78945e-05
9.37855e-07
1.68518e-05
1.04276e-06
1.56999e-05
1.15188e-06
1.44376e-05
1.2623e-06
1.30672e-05
1.37045e-06
1.15951e-05
1.47207e-06
1.00342e-05
1.56088e-06
8.40509e-06
1.62911e-06
6.73818e-06
1.66691e-06
5.07608e-06
1.6621e-06
3.47978e-06
1.59629e-06
2.04562e-06
1.43417e-06
9.02228e-07
1.14339e-06
9.94763e-07
-9.25352e-08
2.28268e-06
-1.28792e-06
1.26736e-06
1.01532e-06
5.77396e-07
6.8996e-07
3.90778e-07
1.86617e-07
3.10601e-07
8.01773e-08
2.47038e-07
6.3563e-08
2.15076e-07
3.19617e-08
2.07082e-07
7.99382e-09
2.0231e-07
4.77286e-09
1.91223e-07
1.10865e-08
1.78176e-07
1.30467e-08
1.6991e-07
8.2668e-09
1.67297e-07
2.61237e-09
1.6768e-07
-3.82276e-10
1.67377e-07
3.02128e-10
1.6426e-07
3.11774e-09
1.57557e-07
6.70311e-09
1.47834e-07
9.72253e-09
1.3673e-07
1.11042e-08
1.26766e-07
9.96399e-09
1.19756e-07
7.01026e-09
1.15873e-07
3.88293e-09
1.14577e-07
1.29588e-09
1.15421e-07
-8.44452e-10
1.17675e-07
-2.25393e-09
1.20053e-07
-2.37756e-09
1.21316e-07
-1.2633e-09
1.20488e-07
8.28294e-10
1.16498e-07
3.98963e-09
1.08797e-07
7.70131e-09
9.76538e-08
1.11429e-08
8.56904e-08
1.19634e-08
7.62922e-08
9.39819e-09
7.13559e-08
4.93629e-09
7.01606e-08
1.19534e-09
7.05603e-08
-3.9971e-10
7.12302e-08
-6.69953e-10
7.21799e-08
-9.4967e-10
7.32124e-08
-1.03245e-09
7.32344e-08
-2.2016e-11
7.14277e-08
1.80667e-09
6.84889e-08
2.93881e-09
6.53701e-08
3.11886e-09
6.2585e-08
2.78502e-09
6.01047e-08
2.48034e-09
5.74513e-08
2.65341e-09
5.41127e-08
3.33863e-09
5.01544e-08
3.95831e-09
4.61949e-08
3.95945e-09
4.26925e-08
3.50242e-09
3.95877e-08
3.10475e-09
3.65225e-08
3.06528e-09
3.31814e-08
3.34103e-09
2.93712e-08
3.81021e-09
2.52624e-08
4.10879e-09
2.16789e-08
3.5835e-09
1.95319e-08
2.14705e-09
1.90699e-08
4.61923e-10
1.97652e-08
-6.95283e-10
2.09823e-08
-1.21703e-09
2.23976e-08
-1.41536e-09
2.39236e-08
-1.526e-09
2.54811e-08
-1.55746e-09
2.68901e-08
-1.40899e-09
2.78844e-08
-9.94329e-10
2.82347e-08
-3.5028e-10
2.78707e-08
3.64038e-10
2.69959e-08
8.74722e-10
2.58479e-08
1.148e-09
2.45977e-08
1.25026e-09
2.33618e-08
1.23584e-09
2.21792e-08
1.18261e-09
2.10303e-08
1.14896e-09
1.98902e-08
1.14008e-09
1.8759e-08
1.13115e-09
1.76562e-08
1.1028e-09
1.66025e-08
1.05372e-09
1.5604e-08
9.98496e-10
1.46502e-08
9.5384e-10
1.37247e-08
9.25471e-10
1.28116e-08
9.1306e-10
1.18991e-08
9.12497e-10
1.09964e-08
9.02704e-10
1.0128e-08
8.68463e-10
9.2846e-09
8.43379e-10
8.40642e-09
8.7818e-10
7.42394e-09
9.82481e-10
6.2786e-09
1.14534e-09
4.93761e-09
1.341e-09
3.41527e-09
1.52233e-09
1.77207e-09
1.6432e-09
8.55146e-11
1.68656e-09
-1.58823e-09
1.67374e-09
-3.21876e-09
1.63053e-09
-4.7751e-09
1.55634e-09
-6.20546e-09
1.43036e-09
-7.48124e-09
1.27578e-09
-8.55597e-09
1.07473e-09
-9.29064e-09
7.34664e-10
-9.62186e-09
3.3122e-10
-9.4724e-09
-1.49454e-10
-8.83698e-09
-6.35427e-10
-7.83481e-09
-1.00217e-09
-6.53971e-09
-1.2951e-09
-4.98335e-09
-1.55636e-09
-3.23744e-09
-1.7459e-09
-1.44745e-09
-1.79e-09
2.48096e-10
-1.69554e-09
1.67771e-09
-1.42961e-09
2.72941e-09
-1.05171e-09
3.39565e-09
-6.66234e-10
3.71814e-09
-3.22489e-10
3.71745e-09
6.90021e-13
3.50742e-09
2.1003e-10
3.06914e-09
4.38277e-10
2.42044e-09
6.48707e-10
1.59098e-09
8.29451e-10
6.23324e-10
9.67661e-10
-4.38722e-10
1.06205e-09
-1.55413e-09
1.11541e-09
-2.68648e-09
1.13236e-09
-3.79376e-09
1.10727e-09
-4.82597e-09
1.03221e-09
-5.71467e-09
8.887e-10
-6.3688e-09
6.54123e-10
-6.68639e-09
3.17595e-10
-6.56608e-09
-1.20312e-10
-6.05192e-09
-5.1416e-10
-5.61268e-09
-4.39235e-10
-5.62718e-09
1.45028e-11
-5.78611e-09
1.58929e-10
-5.48234e-09
-3.03771e-10
-4.66892e-09
-8.13427e-10
-3.63788e-09
-1.03104e-09
-2.65828e-09
-9.79596e-10
-1.77804e-09
-8.80242e-10
-9.10685e-10
-8.67357e-10
2.81753e-11
-9.3886e-10
1.0769e-09
-1.04872e-09
2.19021e-09
-1.11331e-09
3.26238e-09
-1.07217e-09
4.23891e-09
-9.76536e-10
5.17625e-09
-9.37339e-10
6.19967e-09
-1.02342e-09
7.3602e-09
-1.16053e-09
8.60132e-09
-1.24113e-09
9.85004e-09
-1.24872e-09
1.11263e-08
-1.27627e-09
1.2598e-08
-1.47172e-09
1.45151e-08
-1.91705e-09
1.69985e-08
-2.48346e-09
1.98931e-08
-2.89454e-09
2.29608e-08
-3.06774e-09
2.60687e-08
-3.1079e-09
2.92283e-08
-3.15957e-09
3.25668e-08
-3.33853e-09
3.61556e-08
-3.58878e-09
3.98582e-08
-3.70261e-09
4.33114e-08
-3.45317e-09
4.60327e-08
-2.7213e-09
4.76993e-08
-1.66661e-09
4.84677e-08
-7.68435e-10
4.84198e-08
4.79414e-11
4.68653e-08
1.5545e-09
4.75745e-08
-7.09209e-10
5.30602e-08
-5.48573e-09
6.12477e-08
-8.18751e-09
6.92506e-08
-8.00288e-09
7.47972e-08
-5.54659e-09
7.82328e-08
-3.43556e-09
8.07294e-08
-2.49659e-09
8.26002e-08
-1.87085e-09
8.39502e-08
-1.35003e-09
8.49722e-08
-1.02198e-09
8.65003e-08
-1.52808e-09
8.98498e-08
-3.34947e-09
9.47416e-08
-4.89183e-09
1.00326e-07
-5.58482e-09
1.05465e-07
-5.13811e-09
1.08946e-07
-3.48163e-09
1.09928e-07
-9.82328e-10
1.08679e-07
1.24943e-09
1.06826e-07
1.85351e-09
1.06439e-07
3.86427e-10
1.09658e-07
-3.21852e-09
1.16677e-07
-7.01888e-09
1.26359e-07
-9.68274e-09
1.36413e-07
-1.00538e-08
1.44687e-07
-8.27423e-09
1.50252e-07
-5.56461e-09
1.53261e-07
-3.00906e-09
1.54194e-07
-9.33262e-10
1.5314e-07
1.05394e-09
1.49568e-07
3.57263e-09
1.42731e-07
6.83677e-09
1.32337e-07
1.03943e-08
1.30497e-08
2.64977e-05
1.99575e-10
2.65201e-05
5.55627e-09
2.6538e-05
1.09291e-08
2.6547e-05
1.48321e-08
2.65572e-05
1.56342e-08
2.65714e-05
1.67094e-08
2.6587e-05
1.90606e-08
2.66021e-05
2.17256e-08
2.66169e-05
2.419e-08
2.6632e-05
2.66263e-08
2.66475e-05
2.93205e-08
2.66635e-05
3.23589e-08
2.66796e-05
3.57323e-08
2.6696e-05
3.94724e-08
2.67128e-05
4.36598e-08
2.67298e-05
4.8387e-08
2.67473e-05
5.37452e-08
2.67651e-05
5.98346e-08
2.67834e-05
6.6774e-08
2.68021e-05
7.4705e-08
2.68213e-05
8.37926e-08
2.68409e-05
9.42292e-08
2.6861e-05
1.0624e-07
2.68814e-05
1.20092e-07
2.69022e-05
1.36097e-07
2.6923e-05
1.54627e-07
2.69437e-05
1.76122e-07
2.69638e-05
2.011e-07
2.69828e-05
2.30175e-07
2.69998e-05
2.64075e-07
2.70137e-05
3.03651e-07
2.7023e-05
3.49903e-07
2.70254e-05
4.03993e-07
2.70181e-05
4.67255e-07
2.69973e-05
5.41206e-07
2.69581e-05
6.27538e-07
2.68939e-05
7.28088e-07
2.6797e-05
8.4455e-07
2.66576e-05
9.78533e-07
2.6464e-05
1.13148e-06
2.62024e-05
1.30436e-06
2.58568e-05
1.49741e-06
2.54093e-05
1.70982e-06
2.48404e-05
1.93935e-06
2.41306e-05
2.1819e-06
2.32605e-05
2.43096e-06
2.22126e-05
2.67705e-06
2.09716e-05
2.9079e-06
1.95275e-05
3.10619e-06
1.78692e-05
3.25463e-06
1.59828e-05
3.32052e-06
1.38264e-05
3.29984e-06
1.0518e-05
3.21581e-06
6.11111e-06
3.119e-06
3.45702e-06
3.66941e-06
1.80831e-06
2.33868e-06
1.24712e-06
7.47808e-07
9.23065e-07
4.04231e-07
7.29709e-07
2.56919e-07
6.48273e-07
1.13398e-07
6.21466e-07
3.48002e-08
5.82502e-07
4.3737e-08
5.28018e-07
6.55708e-08
4.82902e-07
5.81628e-08
4.55855e-07
3.53132e-08
4.42509e-07
1.5959e-08
4.34471e-07
7.65513e-09
4.2653e-07
8.24336e-09
4.15822e-07
1.38259e-08
3.99788e-07
2.27364e-08
3.79642e-07
2.98695e-08
3.5783e-07
3.29158e-08
3.38843e-07
2.89507e-08
3.26162e-07
1.96913e-08
3.19109e-07
1.0936e-08
3.15661e-07
4.74444e-09
3.15218e-07
-4.02187e-10
3.17507e-07
-4.5428e-09
3.20351e-07
-5.22093e-09
3.21033e-07
-1.94593e-09
3.17626e-07
4.23511e-09
3.09948e-07
1.16679e-08
2.95368e-07
2.22814e-08
2.73296e-07
3.3215e-08
2.48703e-07
3.6556e-08
2.28495e-07
2.96069e-08
2.18246e-07
1.51847e-08
2.15956e-07
3.48541e-09
2.16155e-07
-5.98252e-10
2.164e-07
-9.15769e-10
2.14081e-07
1.36997e-09
2.10695e-07
2.35357e-09
2.05576e-07
5.09642e-09
1.9642e-07
1.09634e-08
1.84169e-07
1.51896e-08
1.71805e-07
1.54827e-08
1.60661e-07
1.39293e-08
1.50854e-07
1.22869e-08
1.414e-07
1.21077e-08
1.30646e-07
1.40921e-08
1.18591e-07
1.60134e-08
1.0769e-07
1.4861e-08
9.93679e-08
1.18242e-08
9.31589e-08
9.31369e-09
8.77304e-08
8.49384e-09
8.22145e-08
8.8569e-09
7.60807e-08
9.94396e-09
6.93923e-08
1.07973e-08
6.34914e-08
9.48434e-09
6.00016e-08
5.63684e-09
5.96028e-08
8.60722e-10
6.10802e-08
-2.17262e-09
6.30841e-08
-3.22094e-09
6.49638e-08
-3.29509e-09
6.68162e-08
-3.3784e-09
6.85625e-08
-3.30372e-09
7.00732e-08
-2.91978e-09
7.07424e-08
-1.66347e-09
6.99406e-08
4.51494e-10
6.80462e-08
2.25842e-09
6.53058e-08
3.61519e-09
6.20716e-08
4.38215e-09
5.86604e-08
4.66146e-09
5.53316e-08
4.56462e-09
5.21741e-08
4.34013e-09
4.90964e-08
4.22665e-09
4.59911e-08
4.24535e-09
4.28426e-08
4.27966e-09
3.97157e-08
4.22974e-09
3.66828e-08
4.08663e-09
3.37771e-08
3.90417e-09
3.09993e-08
3.73168e-09
2.83515e-08
3.57323e-09
2.58321e-08
3.43243e-09
2.3413e-08
3.33168e-09
2.11558e-08
3.15988e-09
1.91922e-08
2.83201e-09
1.75622e-08
2.47343e-09
1.61822e-08
2.25811e-09
1.497e-08
2.19469e-09
1.38158e-08
2.2996e-09
1.26325e-08
2.52431e-09
1.14304e-08
2.7244e-09
1.02848e-08
2.78883e-09
9.2582e-09
2.71312e-09
8.35231e-09
2.57963e-09
7.53493e-09
2.44791e-09
6.79745e-09
2.29381e-09
6.25592e-09
1.97189e-09
5.98884e-09
1.54286e-09
5.91861e-09
1.14497e-09
6.1599e-09
4.9337e-10
7.04125e-09
-5.50134e-10
8.52953e-09
-1.63773e-09
1.04067e-08
-2.51265e-09
1.2467e-08
-3.06241e-09
1.45607e-08
-3.3888e-09
1.66159e-08
-3.61155e-09
1.85535e-08
-3.68354e-09
2.03322e-08
-3.56868e-09
2.18019e-08
-3.16524e-09
2.26183e-08
-2.24603e-09
2.26295e-08
-1.06288e-09
2.19479e-08
1.53869e-11
2.06225e-08
1.00294e-09
1.88409e-08
1.78223e-09
1.67016e-08
2.34929e-09
1.43525e-08
2.78739e-09
1.17345e-08
3.26675e-09
8.86553e-09
3.69842e-09
5.8448e-09
3.98838e-09
2.75348e-09
4.15337e-09
-3.56426e-10
4.22532e-09
-3.41762e-09
4.19355e-09
-6.37471e-09
4.06436e-09
-9.16313e-09
3.82063e-09
-1.16707e-08
3.39627e-09
-1.37081e-08
2.69149e-09
-1.50227e-08
1.63227e-09
-1.50267e-08
-1.16369e-10
-1.35159e-08
-2.02492e-09
-1.16346e-08
-2.32057e-09
-1.16149e-08
-5.22529e-12
-1.28383e-08
1.38235e-09
-1.32694e-08
1.27307e-10
-1.13896e-08
-2.69322e-09
-8.60764e-09
-3.81295e-09
-6.32564e-09
-3.2616e-09
-4.70592e-09
-2.49997e-09
-3.25357e-09
-2.3197e-09
-1.60697e-09
-2.58546e-09
4.99542e-10
-3.15523e-09
2.99085e-09
-3.60462e-09
5.56216e-09
-3.64348e-09
8.09194e-09
-3.50631e-09
1.06506e-08
-3.49599e-09
1.3595e-08
-3.96787e-09
1.70574e-08
-4.62288e-09
2.07903e-08
-4.97405e-09
2.44208e-08
-4.87922e-09
2.7752e-08
-4.60747e-09
3.10371e-08
-4.7568e-09
3.49593e-08
-5.83928e-09
4.00771e-08
-7.60125e-09
4.62701e-08
-9.08746e-09
5.30617e-08
-9.85941e-09
6.00578e-08
-1.01039e-08
6.71327e-08
-1.02345e-08
7.45324e-08
-1.07382e-08
8.25511e-08
-1.16074e-08
9.12684e-08
-1.24199e-08
1.00339e-07
-1.25238e-08
1.08811e-07
-1.1193e-08
1.15586e-07
-8.44238e-09
1.20706e-07
-5.88774e-09
1.24586e-07
-3.83251e-09
1.25331e-07
8.09729e-10
1.28965e-07
-4.34281e-09
1.40015e-07
-1.65366e-08
1.56652e-07
-2.48242e-08
1.7254e-07
-2.38909e-08
1.82797e-07
-1.5804e-08
1.89287e-07
-9.92523e-09
1.96892e-07
-1.01016e-08
2.05591e-07
-1.05692e-08
2.1444e-07
-1.01999e-08
2.22828e-07
-9.40934e-09
2.31739e-07
-1.04397e-08
2.44026e-07
-1.56363e-08
2.59414e-07
-2.02796e-08
2.76168e-07
-2.23392e-08
2.92118e-07
-2.10875e-08
3.04857e-07
-1.62208e-08
3.12636e-07
-8.76136e-09
3.16826e-07
-2.94026e-09
3.19966e-07
-1.28678e-09
3.24948e-07
-4.59587e-09
3.34549e-07
-1.28198e-08
3.50829e-07
-2.3298e-08
3.72141e-07
-3.0995e-08
3.94006e-07
-3.19194e-08
4.11964e-07
-2.62315e-08
4.24112e-07
-1.77125e-08
4.31468e-07
-1.03652e-08
4.35434e-07
-4.89964e-09
4.36246e-07
2.42516e-10
4.32334e-07
7.48434e-09
4.22262e-07
1.69082e-08
4.05479e-07
2.71776e-08
3.3981e-08
2.64827e-05
2.25898e-09
2.64804e-05
7.84871e-09
2.64805e-05
1.09021e-08
2.64824e-05
1.28996e-08
2.64828e-05
1.52545e-08
2.64814e-05
1.81125e-08
2.64793e-05
2.10803e-08
2.6477e-05
2.40519e-08
2.64741e-05
2.71225e-08
2.64703e-05
3.04064e-08
2.64656e-05
3.3997e-08
2.646e-05
3.79532e-08
2.64534e-05
4.23261e-08
2.64457e-05
4.71823e-08
2.64368e-05
5.26055e-08
2.64265e-05
5.86883e-08
2.64147e-05
6.55309e-08
2.64013e-05
7.32449e-08
2.63861e-05
8.19587e-08
2.6369e-05
9.18194e-08
2.63498e-05
1.02995e-07
2.63283e-05
1.15675e-07
2.63045e-05
1.30079e-07
2.62781e-05
1.46454e-07
2.62491e-05
1.65085e-07
2.62175e-05
1.86295e-07
2.61831e-05
2.10457e-07
2.61462e-05
2.37995e-07
2.6107e-05
2.69398e-07
2.60659e-05
3.05223e-07
2.60234e-05
3.46113e-07
2.59805e-05
3.92807e-07
2.59383e-05
4.46155e-07
2.58985e-05
5.07137e-07
2.58628e-05
5.76884e-07
2.58336e-05
6.56697e-07
2.58136e-05
7.48083e-07
2.58054e-05
8.52808e-07
2.5811e-05
9.7287e-07
2.5832e-05
1.11054e-06
2.5868e-05
1.26832e-06
2.59166e-05
1.44884e-06
2.59717e-05
1.65474e-06
2.60226e-05
1.88841e-06
2.60528e-05
2.15166e-06
2.60384e-05
2.44541e-06
2.59462e-05
2.76922e-06
2.57328e-05
3.12129e-06
2.5341e-05
3.49797e-06
2.46993e-05
3.89633e-06
2.37045e-05
4.31534e-06
2.225e-05
4.7544e-06
2.02102e-05
5.25561e-06
1.75181e-05
5.81107e-06
1.44852e-05
6.70234e-06
1.04239e-05
6.3999e-06
6.24323e-06
4.92852e-06
2.6605e-06
3.98696e-06
1.56979e-06
1.34763e-06
1.40549e-06
2.77696e-07
1.23708e-06
2.03216e-07
9.4595e-07
3.34865e-07
7.80681e-07
2.3084e-07
7.04522e-07
1.34322e-07
6.69163e-07
7.06721e-08
6.53223e-07
3.1899e-08
6.37412e-07
2.34662e-08
6.19758e-07
2.58972e-08
6.02115e-07
3.14691e-08
5.79888e-07
4.4963e-08
5.57895e-07
5.1863e-08
5.24924e-07
6.58871e-08
5.01075e-07
5.27989e-08
4.91652e-07
2.9115e-08
4.90687e-07
1.1901e-08
4.89407e-07
6.02371e-09
4.87349e-07
1.65611e-09
4.87515e-07
-4.70874e-09
4.8934e-07
-7.04582e-09
4.89975e-07
-2.58122e-09
4.88368e-07
5.84253e-09
4.84499e-07
1.55363e-08
4.73872e-07
3.29087e-08
4.4329e-07
6.37966e-08
4.02131e-07
7.77154e-08
3.7173e-07
6.00083e-08
3.63654e-07
2.32607e-08
3.77743e-07
-1.06038e-08
3.92786e-07
-1.56418e-08
3.91208e-07
6.62896e-10
3.84043e-07
8.53449e-09
3.81146e-07
5.25096e-09
3.70848e-07
1.53947e-08
3.41613e-07
4.0198e-08
3.18375e-07
3.84271e-08
3.04102e-07
2.97565e-08
2.91933e-07
2.60981e-08
2.73631e-07
3.05885e-08
2.47133e-07
3.86061e-08
2.14257e-07
4.69678e-08
1.8277e-07
4.75e-08
1.61055e-07
3.6576e-08
1.46291e-07
2.65889e-08
1.35326e-07
2.02786e-08
1.27127e-07
1.66929e-08
1.23846e-07
1.21382e-08
1.21894e-07
1.18954e-08
1.14379e-07
1.83119e-08
1.05212e-07
1.8652e-08
1.00244e-07
1.06041e-08
1.01435e-07
-3.30287e-10
1.04753e-07
-5.49066e-09
1.06852e-07
-5.3197e-09
1.07315e-07
-3.75752e-09
1.06817e-07
-2.88127e-09
1.06908e-07
-3.39426e-09
1.08056e-07
-4.06744e-09
1.09104e-07
-2.71176e-09
1.078e-07
1.75592e-09
1.03891e-07
6.16718e-09
9.86704e-08
8.8356e-09
9.28071e-08
1.02454e-08
8.68479e-08
1.06207e-08
8.14289e-08
9.98363e-09
7.68267e-08
8.94234e-09
7.26245e-08
8.42888e-09
6.82592e-08
8.61061e-09
6.35686e-08
8.97026e-09
5.87832e-08
9.01515e-09
5.41302e-08
8.7396e-09
4.96271e-08
8.40734e-09
4.52169e-08
8.14189e-09
4.09262e-08
7.86392e-09
3.67495e-08
7.60909e-09
3.24975e-08
7.58373e-09
2.81196e-08
7.53772e-09
2.40714e-08
6.88022e-09
2.05829e-08
5.96193e-09
1.74746e-08
5.36639e-09
1.48484e-08
4.82089e-09
1.27879e-08
4.36015e-09
1.11189e-08
4.19325e-09
9.80266e-09
4.04067e-09
9.00236e-09
3.58913e-09
9.00659e-09
2.70888e-09
1.00093e-08
1.5769e-09
1.20827e-08
3.74575e-10
1.48663e-08
-4.89849e-10
1.82466e-08
-1.40836e-09
2.12689e-08
-1.47947e-09
2.28183e-08
-4.04409e-10
2.36651e-08
-3.53416e-10
2.52223e-08
-2.10735e-09
2.82561e-08
-4.67153e-09
3.23843e-08
-6.64091e-09
3.63562e-08
-7.03426e-09
3.93399e-08
-6.37249e-09
4.16402e-08
-5.9119e-09
4.38633e-08
-5.90664e-09
4.61466e-08
-5.85193e-09
4.78393e-08
-4.85801e-09
4.84632e-08
-2.86986e-09
4.7545e-08
-1.44692e-10
4.51508e-08
2.4096e-09
4.13779e-08
4.77577e-09
3.73776e-08
5.78251e-09
3.39779e-08
5.74899e-09
3.10029e-08
5.76241e-09
2.78517e-08
6.418e-09
2.41613e-08
7.38882e-09
2.02477e-08
7.90198e-09
1.62874e-08
8.11368e-09
1.22704e-08
8.24226e-09
8.14619e-09
8.3178e-09
3.78113e-09
8.42942e-09
-1.00274e-09
8.6045e-09
-6.3075e-09
8.70104e-09
-1.19714e-08
8.35541e-09
-1.73299e-08
6.99071e-09
-2.15257e-08
4.07948e-09
-2.58436e-08
2.29301e-09
-2.86668e-08
5.02605e-10
-2.65705e-08
-2.10156e-09
-1.92868e-08
-5.90132e-09
-8.35074e-09
-1.08087e-08
-9.26029e-10
-1.01179e-08
1.52184e-09
-6.26082e-09
1.37871e-09
-3.11846e-09
1.63724e-09
-2.75851e-09
2.98229e-09
-3.66476e-09
5.27438e-09
-4.87754e-09
8.44582e-09
-6.32668e-09
1.24364e-08
-7.59523e-09
1.73906e-08
-8.59769e-09
2.38175e-08
-9.93316e-09
3.14184e-08
-1.10968e-08
4.01754e-08
-1.27249e-08
4.86716e-08
-1.31191e-08
5.53605e-08
-1.16629e-08
6.00198e-08
-9.53848e-09
6.36461e-08
-8.23383e-09
6.78082e-08
-8.91887e-09
7.34081e-08
-1.14391e-08
8.02611e-08
-1.44543e-08
8.71524e-08
-1.59787e-08
9.24618e-08
-1.51688e-08
9.68884e-08
-1.45305e-08
1.03088e-07
-1.64339e-08
1.13669e-07
-2.1319e-08
1.28006e-07
-2.59452e-08
1.44579e-07
-2.89923e-08
1.60869e-07
-2.88137e-08
1.74505e-07
-2.48294e-08
1.88016e-07
-2.1953e-08
2.01896e-07
-1.97677e-08
2.25615e-07
-2.75517e-08
2.01955e-07
2.4469e-08
1.87739e-07
9.8741e-09
2.04205e-07
-3.30029e-08
2.32451e-07
-5.30707e-08
2.56218e-07
-4.7657e-08
2.56579e-07
-1.61653e-08
2.68737e-07
-2.20832e-08
2.85595e-07
-2.69594e-08
3.04686e-07
-2.96607e-08
3.29826e-07
-3.53396e-08
3.54084e-07
-3.36678e-08
3.49248e-07
-5.60348e-09
3.6189e-07
-2.82779e-08
3.85583e-07
-4.39727e-08
4.12314e-07
-4.9071e-08
4.38388e-07
-4.71606e-08
4.63192e-07
-4.10249e-08
4.8338e-07
-2.89493e-08
4.96166e-07
-1.57263e-08
5.03745e-07
-8.86619e-09
5.12247e-07
-1.30975e-08
5.26511e-07
-2.70845e-08
5.48944e-07
-4.57305e-08
5.77722e-07
-5.97733e-08
6.07609e-07
-6.18059e-08
6.3184e-07
-5.0463e-08
6.46329e-07
-3.22014e-08
6.54801e-07
-1.8837e-08
6.61967e-07
-1.20663e-08
6.67228e-07
-5.01796e-09
6.67855e-07
6.85681e-09
6.58921e-07
2.58422e-08
6.3688e-07
4.92191e-08
6.45169e-08
2.64942e-05
1.22954e-09
2.64959e-05
6.16798e-09
2.64964e-05
1.03815e-08
2.64959e-05
1.34026e-08
2.6495e-05
1.61702e-08
2.6494e-05
1.91472e-08
2.64927e-05
2.23676e-08
2.6491e-05
2.57732e-08
2.64887e-05
2.93882e-08
2.64858e-05
3.32863e-08
2.64823e-05
3.75399e-08
2.6478e-05
4.22161e-08
2.6473e-05
4.73862e-08
2.6467e-05
5.31315e-08
2.64601e-05
5.9543e-08
2.6452e-05
6.67221e-08
2.64428e-05
7.47815e-08
2.64322e-05
8.38482e-08
2.64201e-05
9.40652e-08
2.64063e-05
1.05594e-07
2.63907e-05
1.18619e-07
2.6373e-05
1.33344e-07
2.63531e-05
1.50004e-07
2.63307e-05
1.6886e-07
2.63056e-05
1.90208e-07
2.62775e-05
2.14382e-07
2.62462e-05
2.41754e-07
2.62114e-05
2.72744e-07
2.6173e-05
3.07821e-07
2.61307e-05
3.47506e-07
2.60845e-05
3.92378e-07
2.60342e-05
4.43076e-07
2.598e-05
5.00305e-07
2.59223e-05
5.64835e-07
2.58617e-05
6.37505e-07
2.57992e-05
7.19231e-07
2.57363e-05
8.1101e-07
2.56751e-05
9.13932e-07
2.56188e-05
1.02919e-06
2.55712e-05
1.15811e-06
2.55373e-05
1.30224e-06
2.55228e-05
1.46338e-06
2.55338e-05
1.64371e-06
2.55763e-05
1.84597e-06
2.56544e-05
2.07353e-06
2.57693e-05
2.33054e-06
2.59164e-05
2.62206e-06
2.60837e-05
2.95399e-06
2.62486e-05
3.3331e-06
2.63785e-05
3.76638e-06
2.64316e-05
4.26224e-06
2.63621e-05
4.82391e-06
2.61505e-05
5.4672e-06
2.57886e-05
6.17303e-06
2.54585e-05
7.03243e-06
2.40972e-05
7.76116e-06
2.08925e-05
8.13328e-06
1.59601e-05
8.91935e-06
1.04028e-05
6.90486e-06
5.9938e-06
4.68674e-06
3.18001e-06
3.01701e-06
1.50765e-06
2.00723e-06
1.14792e-06
5.9057e-07
1.20844e-06
7.38004e-08
1.12835e-06
1.50763e-07
9.71898e-07
1.88351e-07
7.52978e-07
2.42386e-07
6.62796e-07
1.16079e-07
6.43814e-07
5.04511e-08
6.2479e-07
6.39879e-08
7.09834e-07
-3.31818e-08
6.77191e-07
9.85301e-08
6.65977e-07
6.4013e-08
6.75034e-07
2.00579e-08
6.86064e-07
8.71575e-10
6.68647e-07
2.3441e-08
6.4723e-07
2.30727e-08
6.40198e-07
2.32279e-09
6.40199e-07
-7.04621e-09
6.32979e-07
4.63887e-09
6.13238e-07
2.5583e-08
6.02185e-07
2.65898e-08
5.93765e-07
4.13284e-08
6.74012e-07
-1.64503e-08
6.66367e-07
8.53605e-08
6.06423e-07
1.19952e-07
5.66708e-07
6.29752e-08
5.84445e-07
-2.83408e-08
6.69495e-07
-1.00691e-07
8.05575e-07
-1.35417e-07
8.10826e-07
3.28315e-09
7.79928e-07
3.6149e-08
6.44575e-07
1.50748e-07
5.41783e-07
1.42989e-07
5.28486e-07
5.17248e-08
5.88086e-07
-2.9844e-08
6.83301e-07
-6.91162e-08
7.39461e-07
-2.55719e-08
6.34068e-07
1.43999e-07
4.78654e-07
2.02382e-07
3.7184e-07
1.54314e-07
3.2371e-07
8.47062e-08
2.78991e-07
7.13075e-08
2.19429e-07
7.98412e-08
1.6765e-07
6.84716e-08
1.59223e-07
2.05654e-08
1.79629e-07
-8.51036e-09
1.99476e-07
-1.5352e-09
2.0005e-07
1.8078e-08
1.92901e-07
1.77527e-08
1.85113e-07
7.45782e-09
1.71184e-07
8.43867e-09
1.57264e-07
8.59988e-09
1.52785e-07
7.22102e-10
1.74164e-07
-2.42607e-08
2.01223e-07
-3.04532e-08
2.06017e-07
-8.8613e-09
1.96002e-07
7.30352e-09
1.77876e-07
1.9882e-08
1.58345e-07
2.56979e-08
1.41775e-07
2.54052e-08
1.30309e-07
2.17118e-08
1.25683e-07
1.5246e-08
1.23319e-07
1.23478e-08
1.21e-07
1.12612e-08
1.17012e-07
1.24175e-08
1.11882e-07
1.37403e-08
1.07094e-07
1.37584e-08
1.02225e-07
1.3884e-08
9.69759e-08
1.39889e-08
9.18448e-08
1.35384e-08
8.69853e-08
1.30014e-08
8.24412e-08
1.24081e-08
7.8478e-08
1.15722e-08
7.58739e-08
1.01878e-08
7.50399e-08
8.37178e-09
7.45512e-08
7.36891e-09
7.24743e-08
8.03877e-09
6.76275e-08
1.02133e-08
5.88533e-08
1.3595e-08
4.56634e-08
1.75501e-08
2.94651e-08
2.03915e-08
1.43821e-08
1.91237e-08
1.01089e-09
1.69604e-08
-1.21864e-08
1.59062e-08
-2.64214e-08
1.58119e-08
-4.19974e-08
1.59506e-08
-5.77283e-08
1.52411e-08
-6.74451e-08
8.30844e-09
-6.54166e-08
-3.50794e-09
-6.0216e-08
-5.60499e-09
-5.33717e-08
-7.19779e-09
-3.94094e-08
-1.60696e-08
-2.17109e-08
-2.237e-08
-3.23594e-09
-2.51159e-08
1.64144e-08
-2.66846e-08
3.94861e-08
-2.94442e-08
6.45902e-08
-3.10159e-08
7.90794e-08
-2.03959e-08
7.9222e-08
-5.99456e-09
7.5198e-08
-8.34019e-10
6.48914e-08
7.43671e-09
5.16282e-08
1.31185e-08
4.67046e-08
7.33319e-09
5.06858e-08
7.94536e-10
5.98165e-08
-3.34817e-09
6.61273e-08
-5.61798e-10
6.47712e-08
7.11853e-09
5.96109e-08
1.15783e-08
5.40296e-08
1.29701e-08
4.94985e-08
1.24331e-08
4.62971e-08
1.1315e-08
4.50502e-08
9.48918e-09
4.49212e-08
8.4468e-09
4.45356e-08
8.81507e-09
4.30974e-08
1.00426e-08
3.97127e-08
1.20858e-08
3.167e-08
1.63981e-08
2.00454e-08
1.86153e-08
1.5738e-08
8.38687e-09
-3.67538e-08
5.47848e-08
-1.40908e-07
1.04656e-07
-2.17628e-07
7.46192e-08
-1.98203e-07
-2.53268e-08
-9.24877e-08
-1.16524e-07
8.558e-09
-1.11164e-07
3.54416e-08
-3.31444e-08
2.55574e-08
6.76576e-09
2.91605e-08
-6.36155e-09
5.23289e-08
-2.68331e-08
6.19624e-08
-1.4511e-08
3.65953e-08
1.90405e-08
-6.89425e-10
2.96895e-08
-3.78952e-08
2.86082e-08
-5.38706e-08
6.04221e-09
-3.26905e-08
-3.22768e-08
2.51546e-08
-7.057e-08
1.08484e-07
-9.6449e-08
1.85068e-07
-8.82469e-08
2.06462e-07
-3.09326e-08
1.67335e-07
3.08938e-08
1.29444e-07
2.89723e-08
1.14797e-07
3.20723e-09
1.25398e-07
-2.50551e-08
1.56572e-07
-4.71528e-08
1.9555e-07
-5.41467e-08
1.84697e-07
-3.67754e-09
1.4155e-07
2.67132e-08
1.26914e-07
-6.68282e-09
1.49411e-07
-4.84428e-08
2.00278e-07
-7.98591e-08
2.81714e-07
-1.10249e-07
3.02101e-07
-4.52161e-08
2.71673e-07
8.47507e-09
2.75853e-07
-2.39479e-08
3.41747e-07
-9.34457e-08
3.79263e-07
-1.30473e-08
4.41182e-07
-5.20442e-08
4.22669e-07
-1.44901e-08
3.87547e-07
-1.79484e-08
2.73366e-07
6.65238e-08
1.80688e-07
7.65127e-08
2.6209e-07
-1.03486e-07
3.62797e-07
-1.27666e-07
4.01123e-07
-6.79866e-08
4.41966e-07
-7.61823e-08
4.98122e-07
-8.98241e-08
5.17051e-07
-2.45325e-08
5.30631e-07
-4.18573e-08
5.1421e-07
-2.75521e-08
5.07765e-07
-4.26264e-08
5.12723e-07
-5.21177e-08
5.33596e-07
-6.18983e-08
5.78187e-07
-7.35401e-08
6.29822e-07
-6.73619e-08
6.65363e-07
-4.44067e-08
7.03417e-07
-5.11521e-08
7.2893e-07
-5.25967e-08
7.4817e-07
-6.49705e-08
7.63184e-07
-7.47874e-08
7.70482e-07
-6.91044e-08
7.71696e-07
-5.16764e-08
7.87587e-07
-4.80927e-08
8.07956e-07
-3.92064e-08
8.20634e-07
-2.47443e-08
8.31463e-07
-1.5847e-08
8.37634e-07
6.86349e-10
8.31321e-07
3.2155e-08
7.91575e-07
8.89652e-08
1.14989e-07
2.64979e-05
1.65251e-09
2.6497e-05
7.11866e-09
2.64963e-05
1.10408e-08
2.64961e-05
1.36115e-08
2.6496e-05
1.62788e-08
2.64957e-05
1.94811e-08
2.6495e-05
2.3001e-08
2.64941e-05
2.66818e-08
2.64929e-05
3.05735e-08
2.64914e-05
3.47896e-08
2.64896e-05
3.94153e-08
2.64873e-05
4.45122e-08
2.64845e-05
5.01481e-08
2.64812e-05
5.64074e-08
2.64774e-05
6.33864e-08
2.64729e-05
7.11911e-08
2.64678e-05
7.99378e-08
2.64619e-05
8.97567e-08
2.64551e-05
1.00794e-07
2.64475e-05
1.13215e-07
2.64389e-05
1.27202e-07
2.64293e-05
1.42964e-07
2.64186e-05
1.60731e-07
2.64067e-05
1.80761e-07
2.63935e-05
2.03345e-07
2.63791e-05
2.28805e-07
2.63634e-05
2.57499e-07
2.63463e-05
2.89829e-07
2.63279e-05
3.26238e-07
2.63082e-05
3.67214e-07
2.62872e-05
4.133e-07
2.62652e-05
4.65089e-07
2.62423e-05
5.23228e-07
2.62187e-05
5.88423e-07
2.61948e-05
6.61436e-07
2.61709e-05
7.43086e-07
2.61477e-05
8.34245e-07
2.61258e-05
9.35837e-07
2.61061e-05
1.04883e-06
2.609e-05
1.17425e-06
2.60791e-05
1.31317e-06
2.60757e-05
1.46675e-06
2.60832e-05
1.63626e-06
2.6106e-05
1.82316e-06
2.61503e-05
2.02924e-06
2.6224e-05
2.25676e-06
2.63374e-05
2.50871e-06
2.65024e-05
2.789e-06
2.67326e-05
3.10285e-06
2.70424e-05
3.45659e-06
2.74462e-05
3.85848e-06
2.7954e-05
4.31612e-06
2.85806e-05
4.84053e-06
2.93211e-05
5.43251e-06
3.02595e-05
6.09404e-06
3.1182e-05
6.83865e-06
3.1809e-05
7.50628e-06
3.24977e-05
8.23067e-06
3.10988e-05
8.30377e-06
2.76699e-05
8.11565e-06
2.28378e-05
7.84915e-06
1.72947e-05
7.55024e-06
1.18419e-05
6.04339e-06
7.25528e-06
4.66044e-06
3.93629e-06
3.46975e-06
1.88106e-06
2.24358e-06
7.50749e-07
1.3727e-06
2.38461e-07
6.28367e-07
1.03833e-07
1.85079e-07
2.31114e-07
-6.32927e-08
6.19061e-07
-4.2113e-07
9.57317e-07
-2.39725e-07
1.1399e-06
-1.18567e-07
1.14143e-06
1.85296e-08
1.0594e-06
8.28924e-08
9.5692e-07
1.25925e-07
8.98348e-07
8.1645e-08
8.51037e-07
4.96334e-08
8.00581e-07
4.34102e-08
7.03333e-07
1.01887e-07
5.80995e-07
1.47921e-07
2.38464e-07
3.69121e-07
7.78599e-08
2.01933e-07
7.38823e-07
-6.77413e-07
1.40506e-06
-5.80873e-07
1.28219e-06
2.42815e-07
1.26225e-06
8.29168e-08
1.27531e-06
-4.13987e-08
1.29946e-06
-1.24838e-07
1.45799e-06
-2.93948e-07
1.69254e-06
-2.31268e-07
2.22191e-06
-4.93226e-07
2.08533e-06
2.87334e-07
1.87268e-06
3.55638e-07
1.77067e-06
1.53737e-07
1.84702e-06
-1.06203e-07
2.17681e-06
-3.98906e-07
2.71503e-06
-5.6379e-07
2.96038e-06
-1.01351e-07
2.56235e-06
6.00419e-07
2.19413e-06
5.22526e-07
1.94753e-06
3.31315e-07
1.67735e-06
3.41482e-07
1.21186e-06
5.4533e-07
7.0942e-07
5.70913e-07
4.07018e-07
3.22968e-07
2.87886e-07
1.10621e-07
3.07052e-07
-2.07007e-08
4.02797e-07
-7.76675e-08
4.4818e-07
-2.76299e-08
5.38322e-07
-8.26837e-08
4.37594e-07
1.09167e-07
1.74498e-07
2.71696e-07
3.34107e-08
1.41809e-07
1.5015e-07
-1.41e-07
5.06299e-07
-3.86602e-07
7.17104e-07
-2.19666e-07
5.51166e-07
1.73241e-07
4.38174e-07
1.32874e-07
3.32119e-07
1.31753e-07
2.38179e-07
1.19345e-07
1.78542e-07
8.13488e-08
1.522e-07
4.15884e-08
1.93169e-07
-2.8622e-08
2.46488e-07
-4.20574e-08
2.21039e-07
3.78667e-08
1.84736e-07
5.00431e-08
1.81668e-07
1.68264e-08
2.00524e-07
-4.97264e-09
2.07193e-07
7.3199e-09
2.00605e-07
2.01263e-08
1.9904e-07
1.45664e-08
1.98387e-07
1.3061e-08
1.8449e-07
2.54695e-08
1.76834e-07
1.78444e-08
2.20992e-07
-3.57862e-08
2.81137e-07
-5.27765e-08
3.40592e-07
-5.14162e-08
4.29882e-07
-7.90768e-08
5.1409e-07
-7.06132e-08
5.33757e-07
-2.11657e-09
4.85205e-07
6.89433e-08
4.49206e-07
5.51224e-08
4.36244e-07
2.99225e-08
4.25247e-07
2.69027e-08
3.63872e-07
7.71874e-08
2.2316e-07
1.56662e-07
-3.07229e-09
2.41474e-07
-2.60087e-07
2.65323e-07
-4.65957e-07
2.02362e-07
-5.24295e-07
5.27327e-08
-5.12192e-07
-1.93007e-08
-5.00762e-07
-2.74995e-08
-5.06124e-07
-1.70083e-08
-5.19277e-07
-1.19629e-08
-5.07839e-07
-3.81221e-08
-4.32125e-07
-1.05159e-07
-2.38638e-07
-2.24502e-07
-1.1091e-07
-1.48124e-07
-1.40751e-07
2.3846e-08
-1.29057e-07
-1.25282e-08
-1.32868e-07
1.1248e-08
-2.9627e-07
1.7652e-07
-4.20037e-07
1.31101e-07
-3.98081e-07
-2.1161e-08
-2.22117e-07
-1.79312e-07
1.16818e-08
-2.34361e-07
9.57252e-08
-7.69248e-08
6.65939e-08
4.07097e-08
5.9396e-08
2.01681e-08
7.57488e-08
-3.91962e-09
6.34067e-08
2.3657e-08
5.45698e-08
1.83261e-08
7.59837e-08
-1.29671e-08
1.15973e-07
-3.11743e-08
2.01683e-07
-7.56671e-08
4.0185e-07
-1.88082e-07
7.64452e-07
-3.46204e-07
1.30812e-06
-5.25056e-07
2.01688e-06
-7.00368e-07
2.79316e-06
-7.21496e-07
3.40486e-06
-5.07046e-07
3.8891e-06
-4.09624e-07
4.45543e-06
-5.91651e-07
5.17018e-06
-8.31277e-07
6.02018e-06
-9.61165e-07
6.91589e-06
-9.28855e-07
7.80919e-06
-8.86532e-07
8.57089e-06
-7.68057e-07
9.08275e-06
-5.38694e-07
9.25171e-06
-1.83472e-07
9.2748e-06
-4.05478e-09
9.3393e-06
-3.48076e-08
9.51549e-06
-1.4758e-07
9.79589e-06
-2.74359e-07
1.01337e-05
-3.7006e-07
1.05112e-05
-4.4812e-07
1.08586e-05
-4.43858e-07
1.1111e-05
-3.40568e-07
1.12681e-05
-1.88045e-07
1.13717e-05
-7.27122e-08
1.14802e-05
-7.96053e-08
1.15976e-05
-1.1419e-07
1.17079e-05