/*--------------------------------*- C++ -*----------------------------------*\
| =========                 |                                                 |
| \\      /  F ield         | OpenFOAM: The Open Source CFD Toolbox           |
|  \\    /   O peration     | Version:  2406                                  |
|   \\  /    A nd           | Website:  www.openfoam.com                      |
|    \\/     M anipulation  |                                                 |
\*---------------------------------------------------------------------------*/
FoamFile
{
    version     2.0;
    format      ascii;
    arch        "LSB;label=32;scalar=64";
    class       surfaceScalarField;
    location    "0.2";
    object      phi;
}
// * * * * * * * * * * * * * * * * * * * * * * * * * * * * * * * * * * * * * //

dimensions      [0 3 -1 0 0 0 0];

oriented        oriented;

internalField   nonuniform List<scalar> 
12225
(
0.263969
2.32927e-06
0.263961
7.39942e-06
0.263952
9.17881e-06
0.263946
5.82926e-06
0.263942
4.08721e-06
0.263936
5.83304e-06
0.263931
5.63365e-06
0.263926
5.09137e-06
0.26392
5.81101e-06
0.263914
5.87704e-06
0.263908
5.6243e-06
0.263903
5.06882e-06
0.263898
5.38935e-06
0.263891
7.00238e-06
0.263883
8.39827e-06
0.263875
7.9385e-06
0.263868
6.29204e-06
0.263863
5.14413e-06
0.263859
4.56454e-06
0.263855
3.8261e-06
0.263852
2.64403e-06
0.263851
1.47722e-06
0.26385
4.47602e-07
0.26385
-1.13148e-07
0.26385
6.4658e-08
0.263849
1.14015e-06
0.263847
1.67106e-06
0.263846
1.22793e-06
0.263846
6.31418e-07
0.263845
2.30642e-07
0.263845
5.17314e-07
0.263844
1.0303e-06
0.263843
8.84328e-07
0.263843
-7.73969e-08
0.263844
-1.13517e-06
0.263846
-1.37663e-06
0.263846
-9.52027e-07
0.263847
-9.48447e-07
0.263849
-1.3316e-06
0.26385
-1.09124e-06
0.26385
-2.4033e-07
0.26385
8.27542e-08
0.263851
-7.65981e-07
0.263853
-2.23087e-06
0.263856
-3.25818e-06
0.263859
-3.0811e-06
0.263861
-1.72088e-06
0.263861
2.19205e-07
0.26386
1.28902e-06
0.263858
1.34204e-06
0.263857
8.21607e-07
0.263857
2.3107e-07
0.263858
-3.87483e-07
0.263859
-1.05133e-06
0.26386
-1.62152e-06
0.263862
-1.96524e-06
0.263864
-2.18492e-06
0.263867
-2.34713e-06
0.263869
-2.20072e-06
0.26387
-1.58077e-06
0.263871
-8.82919e-07
0.263872
-6.50939e-07
0.263873
-8.03781e-07
0.263874
-7.05707e-07
0.263874
-6.89088e-08
0.263873
5.99859e-07
0.263872
6.50139e-07
0.263872
1.88386e-07
0.263872
-2.41566e-07
0.263873
-2.23295e-07
0.263873
1.10202e-07
0.263872
3.73875e-07
0.263872
3.13115e-07
0.263872
-9.93202e-08
0.263872
-5.19616e-07
0.263873
-6.06843e-07
0.263873
-3.88694e-07
0.263874
-2.28493e-07
0.263874
-3.9809e-07
0.263875
-7.35153e-07
0.263876
-7.82629e-07
0.263876
-3.88832e-07
0.263876
2.2162e-07
0.263875
5.03352e-07
0.263875
3.8186e-07
0.263875
6.281e-08
0.263875
-2.10592e-07
0.263875
-1.71747e-07
0.263875
4.35225e-08
0.263875
1.50823e-07
0.263875
-3.41699e-08
0.263875
-4.02345e-07
0.263876
-6.33774e-07
0.263877
-5.79265e-07
0.263877
-4.07356e-07
0.263877
-2.71415e-07
0.263878
-3.10871e-07
0.263878
-4.192e-07
0.263878
-4.3847e-07
0.263879
-3.99726e-07
0.263879
-3.77836e-07
0.26388
-3.8925e-07
0.26388
-3.71521e-07
0.26388
-2.79981e-07
0.26388
-1.38837e-07
0.263881
-5.64039e-08
0.263881
-6.78956e-08
0.263881
-2.0388e-07
0.263881
-3.30365e-07
0.263881
-3.00216e-07
0.263882
-1.30836e-07
0.263881
1.15396e-07
0.263881
1.56647e-07
0.263881
4.00399e-08
0.263881
-1.82696e-07
0.263882
-3.02994e-07
0.263882
-1.79433e-07
0.263882
1.799e-07
0.263881
5.48957e-07
0.263881
6.20377e-07
0.26388
4.89363e-07
0.26388
2.99851e-07
0.263879
2.86527e-07
0.263879
4.38831e-07
0.263878
6.25739e-07
0.263878
7.13689e-07
0.263877
7.23826e-07
0.263876
6.94905e-07
0.263876
6.86309e-07
0.263875
6.85784e-07
0.263874
6.97905e-07
0.263873
7.20271e-07
0.263873
7.63148e-07
0.263872
7.62291e-07
0.263871
7.03778e-07
0.263871
6.1661e-07
0.26387
5.93751e-07
0.263869
6.71636e-07
0.263869
7.91232e-07
0.263868
7.98849e-07
0.263867
6.10269e-07
0.263867
3.04575e-07
0.263867
3.668e-08
0.263867
-1.32159e-08
0.263867
1.99986e-07
0.263866
4.97581e-07
0.263865
6.58478e-07
0.263865
6.05919e-07
0.263865
3.8108e-07
0.263864
1.09625e-07
0.263864
-5.82554e-08
0.263865
-1.0663e-07
0.263865
-1.06187e-07
0.263865
-6.15022e-08
0.263865
6.5522e-08
0.263864
2.53382e-07
0.263864
3.75672e-07
0.263864
3.0284e-07
0.263864
2.68647e-08
0.263864
-4.07535e-07
0.263865
-6.8173e-07
0.263865
-6.38736e-07
0.263866
-3.65936e-07
0.263866
-1.08163e-08
0.263866
1.42514e-07
0.263866
2.87052e-08
0.263866
-1.82887e-07
0.263866
-3.52198e-07
0.263867
-4.0265e-07
0.263867
-4.15006e-07
0.263867
-4.58862e-07
0.263868
-5.16937e-07
0.263868
-4.91213e-07
0.263869
-3.89727e-07
0.263869
-2.94891e-07
0.263869
-3.27049e-07
0.26387
-5.60828e-07
0.263871
-8.37767e-07
0.263872
-1.01721e-06
0.263873
-1.0178e-06
0.263874
-8.7571e-07
0.263874
-6.82332e-07
0.263875
-5.14202e-07
0.263875
-3.93158e-07
0.263876
-3.0194e-07
0.263876
-2.63257e-07
0.263876
-2.31417e-07
0.263876
-2.30638e-07
0.263877
-2.93695e-07
0.263877
-3.6263e-07
0.263877
-3.56067e-07
0.263878
-2.81625e-07
0.263878
-2.03953e-07
0.263878
-1.24942e-07
0.263878
-1.34746e-08
0.263878
1.60779e-07
0.263877
3.78744e-07
0.263877
5.54544e-07
0.263876
6.03098e-07
0.263876
5.2195e-07
0.263875
3.99629e-07
0.263875
3.29233e-07
0.263875
3.73696e-07
0.263874
5.06356e-07
0.263874
6.74303e-07
0.263873
8.20908e-07
0.263872
9.14919e-07
0.263871
9.3164e-07
0.26387
8.38384e-07
0.263869
6.26993e-07
0.263869
3.52105e-07
0.263869
1.14542e-07
0.263869
-2.55947e-08
0.263869
-7.71177e-08
0.263869
-8.78793e-08
0.263869
-1.24446e-07
0.263869
-1.60663e-07
0.263869
-8.41815e-08
0.263869
1.35784e-07
0.263869
4.00002e-07
0.263868
5.40389e-07
0.263868
4.69682e-07
0.263868
2.61158e-07
0.263868
-8.12642e-08
0.263868
-3.74121e-07
0.263869
-5.97555e-07
0.263869
-7.63019e-07
0.26387
-9.09743e-07
0.263871
-1.06878e-06
0.263873
-1.17862e-06
0.263874
-1.13315e-06
0.263875
-9.01357e-07
0.263875
-5.62322e-07
0.263876
-2.66776e-07
0.263876
-1.54512e-07
0.263876
-2.1577e-07
0.263876
-3.4574e-07
0.263877
-4.80113e-07
0.263877
-6.10996e-07
0.263878
-7.77207e-07
0.263879
-9.6682e-07
0.26388
-1.09811e-06
0.263881
-1.09216e-06
0.263882
-9.31688e-07
0.263883
-6.87616e-07
0.263883
-4.69058e-07
0.263884
-3.61105e-07
0.263884
-3.53903e-07
0.263885
-5.15138e-07
-6.55933e-07
0.263976
-3.81686e-07
0.263983
-2.6533e-07
0.263991
1.59483e-06
0.263994
2.7951e-06
0.263996
1.45366e-06
0.264
1.94501e-06
0.264004
2.00881e-06
0.264006
2.96685e-06
0.264008
3.45964e-06
0.264012
2.15691e-06
0.264015
2.28127e-06
0.264018
2.53721e-06
0.264021
2.12895e-06
0.264026
1.84911e-06
0.264033
2.07415e-06
0.264038
2.50653e-06
0.264042
2.96401e-06
0.264044
2.57334e-06
0.264047
1.89636e-06
0.264048
2.50488e-06
0.264047
3.87882e-06
0.264044
4.4355e-06
0.26404
3.99408e-06
0.264037
3.11818e-06
0.264035
1.85042e-06
0.264035
1.17062e-06
0.264035
1.47981e-06
0.264035
1.89323e-06
0.264034
1.76625e-06
0.264033
8.60825e-07
0.264033
1.2331e-07
0.264034
6.19011e-07
0.264033
1.509e-06
0.264031
1.77136e-06
0.264029
1.25168e-06
0.264027
5.65803e-07
0.264025
7.22993e-07
0.264023
1.41692e-06
0.26402
1.62233e-06
0.264018
1.27549e-06
0.264016
1.3957e-06
0.264014
2.18903e-06
0.26401
2.89295e-06
0.264005
3.00596e-06
0.263999
2.6194e-06
0.263994
1.89576e-06
0.263992
9.83782e-07
0.263992
1.75861e-07
0.263993
-3.99501e-07
0.263995
-9.03685e-07
0.263998
-1.60971e-06
0.264
-2.19321e-06
0.264002
-2.19328e-06
0.264003
-1.75701e-06
0.264003
-1.40252e-06
0.264002
-1.18595e-06
0.264
-7.82576e-07
0.263998
-2.62083e-07
0.263996
7.59246e-08
0.263994
2.39023e-07
0.263993
4.71612e-07
0.263992
6.06514e-07
0.263991
2.02713e-07
0.263991
-6.53557e-07
0.263992
-1.10474e-06
0.263993
-5.90727e-07
0.263993
3.61498e-07
0.263992
8.17027e-07
0.263992
4.81984e-07
0.263992
-1.2291e-07
0.263992
-3.74057e-07
0.263993
-1.96238e-07
0.263993
7.90183e-08
0.263993
1.47305e-07
0.263992
-5.64537e-08
0.263992
-2.63676e-07
0.263992
-2.50432e-07
0.263992
-1.17978e-07
0.263991
-1.0124e-07
0.263991
-3.77929e-07
0.263991
-7.90863e-07
0.263992
-1.10355e-06
0.263993
-1.19456e-06
0.263995
-1.1125e-06
0.263996
-9.33647e-07
0.263997
-7.31752e-07
0.263997
-6.02651e-07
0.263998
-5.85721e-07
0.263998
-5.63366e-07
0.263999
-3.83306e-07
0.263999
-5.1176e-08
0.263998
2.51451e-07
0.263997
3.8398e-07
0.263996
3.2417e-07
0.263996
1.70191e-07
0.263995
-1.31647e-08
0.263995
-1.93278e-07
0.263995
-3.55808e-07
0.263995
-4.32505e-07
0.263995
-3.92933e-07
0.263995
-2.86674e-07
0.263995
-1.98062e-07
0.263995
-1.6912e-07
0.263995
-1.93382e-07
0.263995
-2.51719e-07
0.263995
-2.87831e-07
0.263995
-2.78408e-07
0.263995
-2.69684e-07
0.263995
-2.95033e-07
0.263995
-3.89561e-07
0.263996
-5.29089e-07
0.263996
-6.22834e-07
0.263997
-6.25077e-07
0.263998
-5.32382e-07
0.263998
-3.56183e-07
0.263998
-1.10644e-07
0.263997
1.35406e-07
0.263997
3.05554e-07
0.263997
4.43745e-07
0.263998
5.05077e-07
0.263998
4.58217e-07
0.263998
3.64403e-07
0.263997
3.39855e-07
0.263997
4.27907e-07
0.263997
6.18402e-07
0.263997
7.67731e-07
0.263997
8.17664e-07
0.263997
8.12758e-07
0.263997
8.61668e-07
0.263997
9.82616e-07
0.263996
1.14656e-06
0.263996
1.3055e-06
0.263995
1.44853e-06
0.263994
1.56908e-06
0.263993
1.64294e-06
0.263992
1.6348e-06
0.263991
1.56408e-06
0.26399
1.51015e-06
0.26399
1.55716e-06
0.263989
1.70043e-06
0.263988
1.85215e-06
0.263986
1.92486e-06
0.263984
1.90679e-06
0.263982
1.88862e-06
0.26398
1.97395e-06
0.263979
2.17696e-06
0.263977
2.37773e-06
0.263975
2.37364e-06
0.263974
2.07285e-06
0.263972
1.5914e-06
0.263971
1.14455e-06
0.26397
8.95792e-07
0.263969
8.88179e-07
0.263968
9.87105e-07
0.263967
9.977e-07
0.263966
8.73753e-07
0.263966
6.67069e-07
0.263966
4.51303e-07
0.263966
1.70904e-07
0.263965
-1.6148e-07
0.263965
-5.81224e-07
0.263966
-9.39828e-07
0.263966
-1.11709e-06
0.263967
-1.10409e-06
0.263969
-1.05747e-06
0.26397
-1.14196e-06
0.263971
-1.36879e-06
0.263972
-1.59768e-06
0.263974
-1.66563e-06
0.263975
-1.56712e-06
0.263976
-1.42886e-06
0.263977
-1.39226e-06
0.263978
-1.50938e-06
0.263979
-1.72428e-06
0.263981
-1.95636e-06
0.263982
-2.18152e-06
0.263984
-2.43558e-06
0.263986
-2.69939e-06
0.263988
-2.88448e-06
0.26399
-2.86731e-06
0.263992
-2.58681e-06
0.263993
-2.11726e-06
0.263994
-1.62292e-06
0.263995
-1.25812e-06
0.263996
-1.07352e-06
0.263996
-1.01823e-06
0.263997
-1.01296e-06
0.263998
-1.02343e-06
0.263999
-1.06926e-06
0.264
-1.11735e-06
0.264
-1.08355e-06
0.264001
-8.89962e-07
0.264001
-5.5443e-07
0.264001
-2.11313e-07
0.264001
3.80124e-08
0.264001
9.87663e-08
0.264002
8.16112e-08
0.264002
5.92117e-08
0.264003
1.07217e-07
0.264003
2.83135e-07
0.264003
4.96807e-07
0.264002
7.05003e-07
0.264002
9.07728e-07
0.264001
1.10738e-06
0.264001
1.28352e-06
0.264
1.40807e-06
0.264
1.48407e-06
0.263999
1.56027e-06
0.263998
1.69197e-06
0.263997
1.88989e-06
0.263995
2.11163e-06
0.263993
2.30245e-06
0.26399
2.43883e-06
0.263988
2.53277e-06
0.263985
2.57463e-06
0.263982
2.4904e-06
0.26398
2.20097e-06
0.263978
1.71388e-06
0.263977
1.17593e-06
0.263977
7.8156e-07
0.263977
6.30608e-07
0.263977
6.47049e-07
0.263976
6.3784e-07
0.263976
4.30489e-07
0.263975
3.43034e-08
0.263975
-4.53692e-07
0.263975
-9.27232e-07
0.263976
-1.37288e-06
0.263977
-1.85839e-06
0.263978
-2.41009e-06
0.26398
-2.90566e-06
0.263982
-3.16128e-06
0.263984
-3.08474e-06
0.263987
-2.74933e-06
0.263989
-2.36382e-06
0.263991
-2.11911e-06
0.263993
-2.07253e-06
0.263994
-2.15849e-06
0.263996
-2.27156e-06
0.263998
-2.36155e-06
0.263999
-2.44324e-06
0.264001
-2.53371e-06
0.264002
-2.59824e-06
0.264004
-2.55671e-06
0.264005
-2.3458e-06
0.264007
-1.97229e-06
0.264008
-1.51006e-06
0.264009
-1.06301e-06
0.264009
-6.48639e-07
-4.48334e-07
0.263974
-1.04815e-06
0.263973
7.19756e-07
0.263973
1.54653e-06
0.263974
1.81654e-06
0.263974
1.14949e-06
0.263973
2.45459e-06
0.263974
1.90267e-06
0.263976
7.43701e-07
0.263978
1.01809e-06
0.263979
1.81459e-06
0.263979
2.16896e-06
0.263979
2.03289e-06
0.26398
1.43739e-06
0.263981
9.37269e-07
0.263982
1.11677e-06
0.263983
1.51738e-06
0.263984
1.56125e-06
0.263985
1.4783e-06
0.263986
9.65588e-07
0.263988
3.57427e-07
0.263992
2.17766e-07
0.263996
7.23907e-07
0.263998
2.07892e-06
0.263998
3.01887e-06
0.263997
2.96625e-06
0.263995
2.40171e-06
0.263995
2.25164e-06
0.263994
2.49415e-06
0.263993
2.64409e-06
0.263992
2.33648e-06
0.26399
1.40932e-06
0.26399
4.21898e-07
0.263992
-1.08475e-08
0.263994
2.15424e-07
0.263995
2.04097e-07
0.263996
-5.87183e-07
0.263998
-1.21246e-06
0.264
-1.00752e-06
0.264002
-5.1182e-07
0.264004
-4.24088e-07
0.264006
-7.17847e-07
0.264009
-8.21162e-07
0.264012
-3.42249e-07
0.264015
7.53284e-07
0.264015
1.91957e-06
0.264015
2.63e-06
0.264013
2.74237e-06
0.26401
2.61853e-06
0.264007
2.70622e-06
0.264003
2.98718e-06
0.263999
2.97797e-06
0.263994
2.49044e-06
0.26399
1.87118e-06
0.263987
1.34168e-06
0.263985
7.62689e-07
0.263983
4.77011e-08
0.263983
-4.43285e-07
0.263983
-5.13521e-07
0.263984
-5.18643e-07
0.263985
-7.24143e-07
0.263986
-8.32519e-07
0.263987
-4.72927e-07
0.263987
1.12337e-07
0.263986
2.87834e-07
0.263985
-5.25234e-08
0.263985
-3.26976e-07
0.263986
-1.51988e-07
0.263986
2.40169e-07
0.263986
4.08323e-07
0.263986
2.50987e-07
0.263986
-3.87626e-08
0.263986
-2.67671e-07
0.263986
-3.28822e-07
0.263986
-2.47787e-07
0.263987
-1.45907e-07
0.263986
-1.65856e-07
0.263987
-3.15374e-07
0.263987
-4.73882e-07
0.263987
-5.20157e-07
0.263987
-4.85598e-07
0.263987
-5.17984e-07
0.263987
-7.21622e-07
0.263987
-1.06969e-06
0.263987
-1.40011e-06
0.263988
-1.49887e-06
0.263988
-1.2743e-06
0.263988
-8.96539e-07
0.263988
-6.57044e-07
0.263989
-6.60413e-07
0.263989
-7.17379e-07
0.263989
-5.519e-07
0.26399
-1.90085e-07
0.26399
1.49622e-07
0.26399
1.98934e-07
0.26399
-1.27101e-08
0.263991
-2.90058e-07
0.263991
-4.45048e-07
0.263991
-4.91962e-07
0.263991
-4.8846e-07
0.263991
-4.69004e-07
0.263991
-4.26814e-07
0.263991
-3.56372e-07
0.263992
-2.80861e-07
0.263992
-2.58905e-07
0.263992
-3.35569e-07
0.263992
-4.78504e-07
0.263992
-5.92218e-07
0.263993
-6.09264e-07
0.263993
-5.51922e-07
0.263993
-5.16972e-07
0.263993
-5.88375e-07
0.263993
-7.40153e-07
0.263993
-8.45454e-07
0.263994
-7.63467e-07
0.263994
-4.61418e-07
0.263994
1.28183e-08
0.263993
4.27464e-07
0.263993
6.32154e-07
0.263993
6.315e-07
0.263993
5.39635e-07
0.263993
4.7734e-07
0.263993
5.21503e-07
0.263992
6.68071e-07
0.263992
8.77626e-07
0.263991
1.09179e-06
0.263991
1.22518e-06
0.26399
1.25085e-06
0.26399
1.24913e-06
0.263989
1.35002e-06
0.263989
1.60685e-06
0.263988
1.94165e-06
0.263987
2.21055e-06
0.263986
2.33352e-06
0.263985
2.35081e-06
0.263985
2.35543e-06
0.263984
2.39417e-06
0.263983
2.44323e-06
0.263982
2.4691e-06
0.263981
2.49068e-06
0.26398
2.56684e-06
0.263979
2.73302e-06
0.263978
2.95889e-06
0.263977
3.17217e-06
0.263976
3.32346e-06
0.263974
3.39686e-06
0.263973
3.40677e-06
0.263972
3.35089e-06
0.263971
3.15704e-06
0.263971
2.76946e-06
0.26397
2.24079e-06
0.263969
1.74677e-06
0.263969
1.48624e-06
0.263968
1.5335e-06
0.263967
1.73711e-06
0.263967
1.80112e-06
0.263966
1.54617e-06
0.263966
9.94944e-07
0.263966
3.17661e-07
0.263966
-3.00904e-07
0.263967
-7.60501e-07
0.263967
-1.11238e-06
0.263968
-1.40736e-06
0.263968
-1.65564e-06
0.263969
-1.80915e-06
0.26397
-1.84026e-06
0.26397
-1.8179e-06
0.263971
-1.85938e-06
0.263971
-2.00688e-06
0.263972
-2.18097e-06
0.263973
-2.2741e-06
0.263973
-2.27513e-06
0.263974
-2.28977e-06
0.263975
-2.44882e-06
0.263976
-2.80677e-06
0.263978
-3.29262e-06
0.263979
-3.76352e-06
0.263981
-4.10656e-06
0.263983
-4.27479e-06
0.263984
-4.26268e-06
0.263985
-4.06454e-06
0.263986
-3.66896e-06
0.263987
-3.10529e-06
0.263988
-2.48007e-06
0.263989
-1.95244e-06
0.263989
-1.64844e-06
0.26399
-1.58612e-06
0.263991
-1.67209e-06
0.263991
-1.76905e-06
0.263992
-1.78575e-06
0.263993
-1.69497e-06
0.263993
-1.50703e-06
0.263993
-1.22916e-06
0.263994
-8.70506e-07
0.263994
-4.75758e-07
0.263994
-1.19756e-07
0.263994
1.13659e-07
0.263994
2.17797e-07
0.263994
2.55391e-07
0.263993
3.3819e-07
0.263993
5.50505e-07
0.263993
8.70966e-07
0.263992
1.23087e-06
0.263992
1.56717e-06
0.263991
1.84969e-06
0.26399
2.07291e-06
0.263989
2.23999e-06
0.263988
2.36679e-06
0.263987
2.49925e-06
0.263986
2.70522e-06
0.263985
3.02569e-06
0.263984
3.42456e-06
0.263983
3.79012e-06
0.263981
3.99822e-06
0.26398
3.9874e-06
0.263978
3.78077e-06
0.263977
3.43895e-06
0.263977
3.00276e-06
0.263976
2.48472e-06
0.263975
1.91997e-06
0.263974
1.40061e-06
0.263974
1.04341e-06
0.263974
8.92197e-07
0.263974
8.48415e-07
0.263973
7.02094e-07
0.263973
2.72901e-07
0.263973
-4.81215e-07
0.263974
-1.44343e-06
0.263975
-2.42845e-06
0.263976
-3.2899e-06
0.263978
-3.95448e-06
0.263979
-4.40895e-06
0.263981
-4.66051e-06
0.263982
-4.69122e-06
0.263984
-4.49093e-06
0.263986
-4.1275e-06
0.263987
-3.74925e-06
0.263989
-3.50609e-06
0.26399
-3.46686e-06
0.263991
-3.58322e-06
0.263993
-3.74018e-06
0.263994
-3.84037e-06
0.263996
-3.84465e-06
0.263997
-3.75099e-06
0.263998
-3.55227e-06
0.263999
-3.22276e-06
0.263999
-2.74761e-06
0.264
-2.15238e-06
0.264
-1.5396e-06
0.264001
-9.22361e-07
-5.01771e-07
0.263977
9.43399e-07
0.263977
1.45038e-06
0.263977
1.06472e-06
0.263976
3.19485e-06
0.263975
1.49595e-06
0.263977
1.04168e-06
0.263977
2.10822e-06
0.263975
2.2827e-06
0.263973
2.64217e-06
0.263973
2.23226e-06
0.263974
1.44503e-06
0.263974
1.57007e-06
0.263973
2.17498e-06
0.263972
2.07455e-06
0.263972
1.66834e-06
0.263971
1.86832e-06
0.26397
2.60533e-06
0.263968
3.42263e-06
0.263966
3.30443e-06
0.263964
2.67697e-06
0.263962
2.17964e-06
0.263961
1.38959e-06
0.263962
9.00623e-07
0.263964
1.1923e-06
0.263965
1.84475e-06
0.263966
1.92101e-06
0.263967
1.32743e-06
0.263969
5.72019e-07
0.263971
6.71923e-07
0.263971
1.6709e-06
0.26397
2.5438e-06
0.263967
3.01746e-06
0.263964
3.29758e-06
0.26396
3.87737e-06
0.263956
4.80876e-06
0.26395
5.0355e-06
0.263945
4.09015e-06
0.263941
3.16184e-06
0.263937
3.04232e-06
0.263934
2.93707e-06
0.263931
2.03306e-06
0.26393
6.49578e-07
0.26393
-6.42318e-07
0.263932
-1.65629e-06
0.263937
-2.46235e-06
0.263942
-2.96901e-06
0.263948
-3.22017e-06
0.263954
-3.36781e-06
0.26396
-3.31246e-06
0.263966
-2.80242e-06
0.263971
-1.94556e-06
0.263975
-1.21346e-06
0.263977
-8.1952e-07
0.263979
-5.13616e-07
0.26398
-2.20644e-07
0.26398
-1.8188e-07
0.26398
-3.64372e-07
0.26398
-4.12115e-07
0.26398
-2.52431e-07
0.26398
-2.81955e-07
0.263979
-7.07859e-07
0.26398
-1.03255e-06
0.263981
-7.40166e-07
0.263981
-1.41182e-07
0.263981
1.31117e-07
0.263981
-2.73871e-07
0.263982
-8.69816e-07
0.263983
-1.12316e-06
0.263984
-9.30559e-07
0.263985
-5.7794e-07
0.263986
-3.99064e-07
0.263986
-5.06306e-07
0.263986
-7.47024e-07
0.263987
-8.80142e-07
0.263988
-8.4333e-07
0.263988
-8.14322e-07
0.263989
-9.68356e-07
0.26399
-1.22842e-06
0.263991
-1.34256e-06
0.263991
-1.1936e-06
0.263992
-9.11844e-07
0.263992
-6.90642e-07
0.263991
-6.16842e-07
0.26399
-6.51007e-07
0.26399
-6.89712e-07
0.263989
-6.43495e-07
0.263989
-5.13882e-07
0.263988
-4.07307e-07
0.263988
-4.40037e-07
0.263988
-5.95367e-07
0.263988
-6.96172e-07
0.263989
-6.31342e-07
0.263989
-4.77623e-07
0.26399
-4.17865e-07
0.26399
-5.11574e-07
0.263991
-6.41447e-07
0.263991
-6.64932e-07
0.263991
-5.84451e-07
0.263991
-4.90497e-07
0.263991
-4.53263e-07
0.263991
-4.6838e-07
0.263991
-4.90591e-07
0.263991
-4.90468e-07
0.263992
-4.86764e-07
0.263992
-5.20007e-07
0.263992
-6.01129e-07
0.263992
-6.86276e-07
0.263992
-7.18396e-07
0.263992
-6.88881e-07
0.263992
-6.53689e-07
0.263992
-6.697e-07
0.263992
-7.30351e-07
0.263992
-7.45477e-07
0.263992
-6.17594e-07
0.263992
-3.13262e-07
0.263992
1.01427e-07
0.263992
4.59853e-07
0.263992
6.12209e-07
0.263992
5.64884e-07
0.263992
4.64727e-07
0.263992
4.78047e-07
0.263992
6.8017e-07
0.263992
9.94082e-07
0.263991
1.30232e-06
0.263991
1.53445e-06
0.26399
1.67938e-06
0.26399
1.75773e-06
0.263989
1.82286e-06
0.263989
1.95419e-06
0.263988
2.21708e-06
0.263987
2.59046e-06
0.263987
2.95439e-06
0.263986
3.16944e-06
0.263985
3.19261e-06
0.263984
3.11235e-06
0.263983
3.07362e-06
0.263983
3.16036e-06
0.263982
3.34555e-06
0.263981
3.54108e-06
0.26398
3.68971e-06
0.263979
3.80861e-06
0.263978
3.95459e-06
0.263977
4.15208e-06
0.263976
4.34807e-06
0.263975
4.43323e-06
0.263974
4.33539e-06
0.263973
4.06625e-06
0.263972
3.67944e-06
0.263972
3.24517e-06
0.263971
2.84333e-06
0.263971
2.53658e-06
0.26397
2.35249e-06
0.263969
2.27194e-06
0.263968
2.2215e-06
0.263968
2.09002e-06
0.263968
1.756e-06
0.263968
1.17035e-06
0.263968
3.96925e-07
0.263968
-4.11191e-07
0.263968
-1.0801e-06
0.263969
-1.52478e-06
0.263969
-1.7818e-06
0.263969
-1.96804e-06
0.26397
-2.1595e-06
0.26397
-2.34113e-06
0.263971
-2.46577e-06
0.263971
-2.53933e-06
0.263972
-2.61559e-06
0.263973
-2.72458e-06
0.263973
-2.85769e-06
0.263974
-3.00599e-06
0.263975
-3.19698e-06
0.263976
-3.49338e-06
0.263977
-3.94649e-06
0.263978
-4.52011e-06
0.26398
-5.08468e-06
0.263981
-5.49008e-06
0.263982
-5.62697e-06
0.263983
-5.47142e-06
0.263984
-5.07753e-06
0.263985
-4.53174e-06
0.263986
-3.91786e-06
0.263987
-3.31435e-06
0.263988
-2.80619e-06
0.263989
-2.47758e-06
0.263989
-2.36446e-06
0.26399
-2.41272e-06
0.263991
-2.48579e-06
0.263992
-2.44349e-06
0.263992
-2.22076e-06
0.263992
-1.85357e-06
0.263993
-1.42962e-06
0.263993
-1.02344e-06
0.263993
-6.62273e-07
0.263993
-3.41563e-07
0.263993
-5.82716e-08
0.263993
1.90857e-07
0.263993
4.17355e-07
0.263993
6.63001e-07
0.263992
9.78487e-07
0.263992
1.37068e-06
0.263991
1.79065e-06
0.263991
2.16787e-06
0.26399
2.46495e-06
0.26399
2.70186e-06
0.263989
2.93211e-06
0.263988
3.19989e-06
0.263987
3.52033e-06
0.263986
3.89035e-06
0.263985
4.3013e-06
0.263983
4.72579e-06
0.263982
5.0915e-06
0.263981
5.28277e-06
0.263979
5.1928e-06
0.263978
4.79633e-06
0.263978
4.17843e-06
0.263977
3.49126e-06
0.263977
2.87279e-06
0.263976
2.39052e-06
0.263976
2.04084e-06
0.263975
1.78091e-06
0.263974
1.55686e-06
0.263974
1.29625e-06
0.263974
9.01505e-07
0.263974
2.64962e-07
0.263974
-6.91212e-07
0.263974
-1.94476e-06
0.263975
-3.33282e-06
0.263977
-4.58972e-06
0.263978
-5.48114e-06
0.26398
-5.93915e-06
0.263981
-6.05225e-06
0.263982
-5.95874e-06
0.263984
-5.75511e-06
0.263985
-5.49106e-06
0.263986
-5.21156e-06
0.263988
-4.98236e-06
0.263989
-4.87512e-06
0.263991
-4.91604e-06
0.263992
-5.05194e-06
0.263993
-5.17218e-06
0.263995
-5.16678e-06
0.263996
-4.9748e-06
0.263997
-4.59165e-06
0.263998
-4.04466e-06
0.263998
-3.37359e-06
0.263999
-2.62258e-06
0.263999
-1.88669e-06
0.263999
-1.18663e-06
-6.73331e-07
0.263973
3.6492e-07
0.263974
5.64374e-07
0.263975
-4.62937e-08
0.263978
6.39889e-07
0.263978
1.26117e-06
0.263978
1.57192e-06
0.263979
9.87602e-07
0.26398
6.67638e-07
0.263982
6.86137e-07
0.263984
1.0266e-06
0.263983
2.0643e-06
0.263982
2.43102e-06
0.263982
2.40484e-06
0.263981
2.4752e-06
0.263981
2.39524e-06
0.263981
1.76818e-06
0.263983
6.56828e-07
0.263986
4.13414e-07
0.263988
8.05704e-07
0.26399
7.93381e-07
0.263992
5.14755e-07
0.263993
5.23825e-07
0.263993
1.4765e-07
0.263995
-3.15942e-07
0.263997
-2.42286e-08
0.263998
5.0188e-07
0.263999
9.73629e-07
0.263998
8.71791e-07
0.263999
1.32127e-07
0.264001
-2.33144e-07
0.264003
-2.18751e-07
0.264007
-4.10433e-07
0.264011
-8.11936e-07
0.264016
-7.84909e-07
0.26402
1.88953e-07
0.264024
1.70822e-06
0.264025
2.69038e-06
0.264025
3.2392e-06
0.264024
3.84201e-06
0.264023
4.43024e-06
0.26402
4.72519e-06
0.264016
4.55143e-06
0.264012
3.80115e-06
0.264007
2.54884e-06
0.264004
1.10508e-06
0.264001
1.54522e-08
0.263998
-6.58473e-07
0.263996
-1.19723e-06
0.263995
-1.77474e-06
0.263994
-2.19051e-06
0.263994
-2.25517e-06
0.263995
-2.11419e-06
0.263996
-1.84169e-06
0.263997
-1.27131e-06
0.263997
-3.96587e-07
0.263997
4.1188e-07
0.263995
7.81532e-07
0.263994
9.27704e-07
0.263993
1.21481e-06
0.263991
1.50701e-06
0.263989
1.36178e-06
0.263987
8.44545e-07
0.263986
5.07301e-07
0.263985
6.02353e-07
0.263984
7.36367e-07
0.263984
4.02971e-07
0.263983
-3.08788e-07
0.263983
-9.18229e-07
0.263983
-1.15159e-06
0.263984
-1.10004e-06
0.263984
-9.82811e-07
0.263985
-9.08727e-07
0.263985
-8.65764e-07
0.263985
-7.85356e-07
0.263984
-6.26964e-07
0.263984
-4.43944e-07
0.263983
-3.59296e-07
0.263983
-4.36893e-07
0.263982
-6.21003e-07
0.263981
-8.48091e-07
0.263982
-1.09407e-06
0.263982
-1.30461e-06
0.263983
-1.40173e-06
0.263984
-1.35431e-06
0.263984
-1.25936e-06
0.263985
-1.2404e-06
0.263986
-1.29664e-06
0.263987
-1.31823e-06
0.263987
-1.24442e-06
0.263988
-1.13448e-06
0.263988
-1.05758e-06
0.263989
-1.00812e-06
0.263989
-9.48408e-07
0.26399
-8.8418e-07
0.26399
-8.53232e-07
0.26399
-8.5338e-07
0.26399
-8.34732e-07
0.263991
-7.68673e-07
0.263991
-6.75418e-07
0.263991
-5.99636e-07
0.263991
-5.77366e-07
0.263991
-6.2014e-07
0.263991
-7.09007e-07
0.263992
-7.96438e-07
0.263992
-8.30198e-07
0.263992
-7.86918e-07
0.263992
-6.87567e-07
0.263992
-5.84029e-07
0.263992
-5.30859e-07
0.263992
-5.54654e-07
0.263992
-6.28776e-07
0.263992
-6.7649e-07
0.263992
-6.13639e-07
0.263991
-4.12365e-07
0.263991
-1.13478e-07
0.263991
1.79861e-07
0.263991
3.85878e-07
0.263991
4.47795e-07
0.263991
4.08119e-07
0.263992
3.90883e-07
0.263991
5.3766e-07
0.263991
8.95056e-07
0.263991
1.36144e-06
0.26399
1.76288e-06
0.26399
1.99785e-06
0.26399
2.10115e-06
0.263989
2.18715e-06
0.263989
2.34731e-06
0.263988
2.60374e-06
0.263987
2.92807e-06
0.263987
3.27312e-06
0.263986
3.58223e-06
0.263985
3.79695e-06
0.263985
3.88903e-06
0.263984
3.8951e-06
0.263983
3.90809e-06
0.263982
4.01467e-06
0.263981
4.22976e-06
0.26398
4.4862e-06
0.263979
4.69146e-06
0.263978
4.80531e-06
0.263977
4.86527e-06
0.263977
4.93688e-06
0.263976
5.03082e-06
0.263975
5.0743e-06
0.263975
4.97019e-06
0.263974
4.6701e-06
0.263974
4.21746e-06
0.263973
3.74207e-06
0.263972
3.38349e-06
0.263972
3.18748e-06
0.263971
3.08466e-06
0.26397
2.96188e-06
0.26397
2.73406e-06
0.26397
2.37482e-06
0.263969
1.89901e-06
0.263969
1.30837e-06
0.263969
5.63982e-07
0.263969
-3.16551e-07
0.263969
-1.15695e-06
0.263969
-1.76791e-06
0.26397
-2.11226e-06
0.26397
-2.2951e-06
0.26397
-2.46183e-06
0.263971
-2.67684e-06
0.263971
-2.91068e-06
0.263972
-3.12242e-06
0.263972
-3.28409e-06
0.263973
-3.39949e-06
0.263974
-3.52838e-06
0.263974
-3.745e-06
0.263975
-4.09504e-06
0.263976
-4.57303e-06
0.263978
-5.12963e-06
0.263979
-5.69864e-06
0.26398
-6.20863e-06
0.263981
-6.57092e-06
0.263982
-6.68332e-06
0.263983
-6.4828e-06
0.263984
-5.9958e-06
0.263985
-5.33766e-06
0.263986
-4.65788e-06
0.263986
-4.07435e-06
0.263987
-3.6419e-06
0.263988
-3.36633e-06
0.263989
-3.22723e-06
0.26399
-3.18137e-06
0.26399
-3.15241e-06
0.263991
-3.03973e-06
0.263991
-2.76143e-06
0.263992
-2.30667e-06
0.263992
-1.74785e-06
0.263992
-1.1993e-06
0.263992
-7.43629e-07
0.263993
-3.93647e-07
0.263993
-1.02488e-07
0.263993
1.91144e-07
0.263992
5.25153e-07
0.263992
9.11176e-07
0.263992
1.3484e-06
0.263991
1.82483e-06
0.263991
2.30868e-06
0.26399
2.7514e-06
0.26399
3.11457e-06
0.263989
3.40417e-06
0.263988
3.67765e-06
0.263987
4.0092e-06
0.263986
4.43926e-06
0.263985
4.9485e-06
0.263984
5.47193e-06
0.263983
5.93101e-06
0.263982
6.25243e-06
0.263981
6.3661e-06
0.26398
6.20633e-06
0.263979
5.74028e-06
0.263978
5.01097e-06
0.263977
4.15556e-06
0.263977
3.36843e-06
0.263976
2.81445e-06
0.263976
2.53688e-06
0.263975
2.42302e-06
0.263975
2.2605e-06
0.263974
1.86404e-06
0.263974
1.1551e-06
0.263974
1.31669e-07
0.263974
-1.17034e-06
0.263975
-2.68928e-06
0.263976
-4.27714e-06
0.263977
-5.69862e-06
0.263978
-6.74271e-06
0.26398
-7.31251e-06
0.263981
-7.44425e-06
0.263983
-7.28212e-06
0.263984
-6.99375e-06
0.263985
-6.70139e-06
0.263986
-6.4666e-06
0.263988
-6.30519e-06
0.263989
-6.21994e-06
0.26399
-6.21206e-06
0.263991
-6.26098e-06
0.263993
-6.30507e-06
0.263994
-6.25111e-06
0.263995
-6.01301e-06
0.263996
-5.54945e-06
0.263996
-4.8741e-06
0.263997
-4.0431e-06
0.263998
-3.12384e-06
0.263998
-2.2331e-06
0.263998
-1.38065e-06
-7.43578e-07
0.263972
-2.55992e-07
0.263973
-1.21465e-07
0.263972
7.76234e-07
0.263971
2.00114e-06
0.263971
1.13493e-06
0.263972
7.76449e-07
0.263972
1.30937e-06
0.26397
2.11278e-06
0.263968
2.31844e-06
0.263968
1.67824e-06
0.263969
8.13852e-07
0.263971
2.80099e-07
0.263973
1.74658e-07
0.263976
3.59925e-07
0.263978
3.23041e-07
0.263979
5.32407e-07
0.263978
1.44045e-06
0.263976
2.18574e-06
0.263975
2.60695e-06
0.263972
2.8587e-06
0.26397
2.71443e-06
0.263968
2.72007e-06
0.263966
2.24422e-06
0.263964
1.34465e-06
0.263963
8.32367e-07
0.263963
1.00251e-06
0.263962
1.45439e-06
0.263962
1.66639e-06
0.26396
1.61792e-06
0.263958
1.48952e-06
0.263957
1.52238e-06
0.263954
1.9899e-06
0.263951
2.31281e-06
0.263949
1.77424e-06
0.263948
9.86051e-07
0.263949
8.57639e-07
0.26395
9.27865e-07
0.263953
5.86444e-07
0.263957
-9.68559e-08
0.263962
-7.0292e-07
0.263968
-9.18036e-07
0.263973
-8.89408e-07
0.263978
-7.70714e-07
0.263981
-7.25914e-07
0.263983
-9.55781e-07
0.263985
-1.36282e-06
0.263986
-1.68871e-06
0.263986
-1.79182e-06
0.263986
-1.85116e-06
0.263986
-2.02191e-06
0.263986
-2.11042e-06
0.263986
-1.89268e-06
0.263985
-1.46112e-06
0.263985
-1.047e-06
0.263985
-6.77049e-07
0.263986
-2.74367e-07
0.263987
1.51374e-08
0.263988
3.65907e-08
0.263989
-7.55192e-08
0.263991
1.12345e-08
0.263992
2.81457e-07
0.263992
4.95731e-07
0.263992
4.98178e-07
0.263992
3.64877e-07
0.263993
2.41245e-07
0.263993
1.65593e-07
0.263993
9.20571e-08
0.263992
-1.00517e-08
0.263991
-2.16261e-07
0.26399
-5.61077e-07
0.26399
-9.44265e-07
0.26399
-1.21702e-06
0.263991
-1.35083e-06
0.263992
-1.43311e-06
0.263992
-1.46806e-06
0.263993
-1.33177e-06
0.263994
-9.51486e-07
0.263994
-4.73538e-07
0.263993
-6.034e-08
0.263992
1.27021e-07
0.263991
5.23108e-08
0.26399
-1.29422e-07
0.263989
-3.08634e-07
0.263988
-4.001e-07
0.263987
-4.74862e-07
0.263987
-6.79059e-07
0.263986
-1.04786e-06
0.263986
-1.4232e-06
0.263987
-1.61935e-06
0.263987
-1.61095e-06
0.263988
-1.51966e-06
0.263988
-1.44907e-06
0.263989
-1.385e-06
0.263989
-1.27389e-06
0.263989
-1.12875e-06
0.26399
-1.01358e-06
0.26399
-9.62686e-07
0.26399
-9.51972e-07
0.26399
-9.32246e-07
0.26399
-8.83495e-07
0.263991
-8.31208e-07
0.263991
-8.25303e-07
0.263991
-8.8961e-07
0.263991
-9.82281e-07
0.263991
-1.01002e-06
0.263991
-9.02125e-07
0.263991
-6.78451e-07
0.263991
-4.42939e-07
0.263991
-3.11187e-07
0.263991
-3.29318e-07
0.263991
-4.43427e-07
0.263991
-5.24555e-07
0.26399
-4.64166e-07
0.26399
-2.54713e-07
0.26399
5.46208e-09
0.26399
1.92539e-07
0.26399
2.45244e-07
0.26399