/*--------------------------------*- C++ -*----------------------------------*\
| =========                 |                                                 |
| \\      /  F ield         | OpenFOAM: The Open Source CFD Toolbox           |
|  \\    /   O peration     | Version:  2406                                  |
|   \\  /    A nd           | Website:  www.openfoam.com                      |
|    \\/     M anipulation  |                                                 |
\*---------------------------------------------------------------------------*/
FoamFile
{
    version     2.0;
    format      ascii;
    arch        "LSB;label=32;scalar=64";
    class       volVectorField;
    location    "0.2";
    object      U;
}
// * * * * * * * * * * * * * * * * * * * * * * * * * * * * * * * * * * * * * //

dimensions      [0 1 -1 0 0 0 0];

internalField   nonuniform List<vector> 
6250
(
(41.8706 0.0136699 0)
(49.1479 0.0529659 0)
(32.8015 0.0675778 0)
(28.0578 0.0668267 0)
(31.4853 0.0677378 0)
(33.8399 0.0747892 0)
(33.624 0.0835824 0)
(32.8213 0.0907476 0)
(32.5449 0.0968164 0)
(32.6323 0.103249 0)
(32.6979 0.110515 0)
(32.6446 0.118404 0)
(32.5485 0.126795 0)
(32.4671 0.135843 0)
(32.3991 0.145789 0)
(32.3265 0.156839 0)
(32.2422 0.169175 0)
(32.148 0.183005 0)
(32.0458 0.198573 0)
(31.9347 0.216155 0)
(31.8126 0.236053 0)
(31.6776 0.258606 0)
(31.5279 0.284197 0)
(31.3617 0.313261 0)
(31.1764 0.346292 0)
(30.9695 0.383845 0)
(30.7377 0.426535 0)
(30.4775 0.475046 0)
(30.1846 0.530124 0)
(29.8546 0.592569 0)
(29.4819 0.663226 0)
(29.0607 0.742958 0)
(28.5842 0.832612 0)
(28.0449 0.932963 0)
(27.4345 1.04464 0)
(26.7442 1.16799 0)
(25.9643 1.30297 0)
(25.0851 1.44888 0)
(24.0964 1.60418 0)
(22.9887 1.76623 0)
(21.7534 1.93102 0)
(20.3836 2.09283 0)
(18.8757 2.24389 0)
(17.2298 2.37387 0)
(15.4507 2.46938 0)
(13.5504 2.51402 0)
(11.545 2.48865 0)
(9.4783 2.3699 0)
(7.33956 2.13139 0)
(5.41242 1.72582 0)
(2.91811 1.07674 0)
(2.78227 0.00923048 0)
(-1.26053 -5.37087 0)
(4.77253 -9.05024 0)
(1.60051 1.03125 0)
(0.737351 0.829735 0)
(0.557849 0.311487 0)
(0.437465 0.0850813 0)
(0.341761 0.0367833 0)
(0.28308 0.0119858 0)
(0.260372 -0.00852604 0)
(0.255037 -0.00920212 0)
(0.246228 -0.000902471 0)
(0.230474 0.00247577 0)
(0.216401 0.000608171 0)
(0.209729 -0.00197748 0)
(0.209025 -0.00279546 0)
(0.209758 -0.00191331 0)
(0.208026 -1.34806e-05 0)
(0.201913 0.00235246 0)
(0.191345 0.00424888 0)
(0.177829 0.00507368 0)
(0.164176 0.0044211 0)
(0.153303 0.00278377 0)
(0.146499 0.00109436 0)
(0.143414 -0.000358936 0)
(0.143345 -0.00169078 0)
(0.145515 -0.00256691 0)
(0.148719 -0.00248496 0)
(0.15132 -0.00145536 0)
(0.151866 8.30914e-05 0)
(0.149036 0.00178932 0)
(0.141659 0.00390348 0)
(0.129447 0.00584329 0)
(0.114311 0.00627635 0)
(0.100358 0.0047712 0)
(0.0912729 0.00201183 0)
(0.0877644 -0.000421417 0)
(0.0876759 -0.00173566 0)
(0.0885975 -0.00245742 0)
(0.0897174 -0.0028891 0)
(0.0910624 -0.00311279 0)
(0.0918426 -0.00263067 0)
(0.0907222 -0.00147395 0)
(0.0876186 -0.000581313 0)
(0.0836946 -0.000483931 0)
(0.0799602 -0.000974645 0)
(0.0767048 -0.00148084 0)
(0.073547 -0.0013927 0)
(0.0697949 -0.000547452 0)
(0.0651493 0.000487021 0)
(0.0601095 0.00102564 0)
(0.0554229 0.00109694 0)
(0.0513457 0.00114071 0)
(0.0475739 0.0014248 0)
(0.0436344 0.00186626 0)
(0.039155 0.00229235 0)
(0.0340829 0.00247084 0)
(0.0290916 0.00209697 0)
(0.025387 0.00119477 0)
(0.0237803 0.000153962 0)
(0.0240478 -0.00056567 0)
(0.0253605 -0.000896836 0)
(0.0270762 -0.00103432 0)
(0.0289603 -0.00114843 0)
(0.0309405 -0.00123041 0)
(0.0328577 -0.00120386 0)
(0.0344082 -0.000984741 0)
(0.0352508 -0.000613783 0)
(0.0352035 -0.000272977 0)
(0.0343736 -3.97111e-06 0)
(0.0330573 0.000177178 0)
(0.0315287 0.000260072 0)
(0.0299668 0.000258676 0)
(0.0284597 0.000211083 0)
(0.0270088 0.000159966 0)
(0.0255799 0.000121335 0)
(0.0241572 8.90228e-05 0)
(0.0227559 5.47663e-05 0)
(0.0214044 2.10554e-05 0)
(0.0201209 1.34522e-06 0)
(0.0189016 1.04679e-05 0)
(0.0177278 5.55347e-05 0)
(0.0165776 0.000139989 0)
(0.0154326 0.000263657 0)
(0.0142929 0.000410163 0)
(0.0131845 0.00056621 0)
(0.0121222 0.000747955 0)
(0.0110607 0.000981487 0)
(0.00991177 0.00127086 0)
(0.00858852 0.00160556 0)
(0.00703189 0.00195646 0)
(0.00523301 0.00227638 0)
(0.00324475 0.00252135 0)
(0.00115071 0.00266588 0)
(-0.000960803 0.002706 0)
(-0.00303175 0.00263329 0)
(-0.00503423 0.00243511 0)
(-0.00691742 0.00210207 0)
(-0.0086272 0.0016741 0)
(-0.010116 0.00121316 0)
(-0.011265 0.00072255 0)
(-0.0119335 0.000195712 0)
(-0.01203 -0.000295856 0)
(-0.0115135 -0.000707329 0)
(-0.0104651 -0.00104394 0)
(-0.00901043 -0.00131442 0)
(-0.00721049 -0.00153105 0)
(-0.00512397 -0.0016963 0)
(-0.002884 -0.00179984 0)
(-0.000674739 -0.00180321 0)
(0.00129584 -0.00168716 0)
(0.00284787 -0.00149516 0)
(0.00391605 -0.00128784 0)
(0.00452863 -0.00108937 0)
(0.00472631 -0.00091978 0)
(0.00458861 -0.000763453 0)
(0.00417222 -0.000623378 0)
(0.00347754 -0.000469164 0)
(0.00253598 -0.00030387 0)
(0.0013974 -0.000144836 0)
(0.000121205 -2.57231e-06 0)
(-0.00125068 0.000112539 0)
(-0.00267032 0.00019487 0)
(-0.00407984 0.000230347 0)
(-0.00542875 0.000213077 0)
(-0.0066452 0.000134768 0)
(-0.00762957 -1.25419e-05 0)
(-0.00825354 -0.000228129 0)
(-0.00836317 -0.000475541 0)
(-0.0079161 -0.000522272 0)
(-0.00726455 -3.28773e-05 0)
(-0.00700324 0.000955577 0)
(-0.00717789 0.00154597 0)
(-0.00713392 0.00120311 0)
(-0.00641133 0.000308399 0)
(-0.00520233 -0.000318581 0)
(-0.00391909 -0.000477117 0)
(-0.00276659 -0.000418928 0)
(-0.00169593 -0.000368605 0)
(-0.000581705 -0.000383895 0)
(0.000661866 -0.00045027 0)
(0.002029 -0.000499346 0)
(0.00340981 -0.000460852 0)
(0.00468967 -0.000366863 0)
(0.00587173 -0.000301099 0)
(0.00708541 -0.000322488 0)
(0.00845201 -0.000352648 0)
(0.00996186 -0.000262124 0)
(0.0115157 -2.62343e-05 0)
(0.0130666 0.000232462 0)
(0.014739 0.000302534 0)
(0.0168242 3.42231e-05 0)
(0.0195797 -0.000489677 0)
(0.0229774 -0.000983033 0)
(0.0267389 -0.0012471 0)
(0.0306061 -0.00128721 0)
(0.0345081 -0.00124213 0)
(0.0385604 -0.00126867 0)
(0.0429193 -0.00139014 0)
(0.0475584 -0.00145767 0)
(0.0521436 -0.00122514 0)
(0.0560901 -0.000521084 0)
(0.0588543 0.000470334 0)
(0.0603489 0.00111925 0)
(0.0606559 0.00110912 0)
(0.0592635 0.000884749 0)
(0.0582965 -0.000986153 0)
(0.0621395 -0.00361843 0)
(0.0711615 -0.00528755 0)
(0.0818061 -0.00495477 0)
(0.0904666 -0.00281327 0)
(0.096027 -0.000512698 0)
(0.099613 0.00106816 0)
(0.102232 0.00227811 0)
(0.104115 0.00308349 0)
(0.105434 0.00318891 0)
(0.106868 0.00246967 0)
(0.109857 0.000997406 0)
(0.115119 -0.000360572 0)
(0.121894 -0.00107884 0)
(0.12887 -0.000952604 0)
(0.134488 -1.911e-06 0)
(0.137323 0.00135717 0)
(0.136937 0.00228774 0)
(0.134542 0.00224904 0)
(0.132645 0.00114511 0)
(0.134133 -0.00075642 0)
(0.140638 -0.00299276 0)
(0.151555 -0.00460705 0)
(0.164458 -0.0048477 0)
(0.17631 -0.00383322 0)
(0.18507 -0.00232243 0)
(0.190354 -0.00102879 0)
(0.192766 -1.81326e-05 0)
(0.192798 0.00109242 0)
(0.190142 0.00268546 0)
(0.183501 0.00490501 0)
(0.171043 0.00786401 0)
(0.155277 0.0112727 0)
(41.9027 0.0106564 0)
(49.2638 0.0431454 0)
(32.9856 0.0586722 0)
(28.2731 0.0591305 0)
(31.7297 0.0599707 0)
(34.1358 0.0664512 0)
(33.9856 0.0747569 0)
(33.2501 0.0816062 0)
(33.0395 0.0874362 0)
(33.1945 0.0937367 0)
(33.3324 0.101058 0)
(33.3571 0.109241 0)
(33.344 0.118199 0)
(33.3503 0.128127 0)
(33.3754 0.139314 0)
(33.4023 0.152008 0)
(33.4248 0.166441 0)
(33.4455 0.182883 0)
(33.4672 0.201661 0)
(33.4904 0.22316 0)
(33.5143 0.247816 0)
(33.5387 0.276134 0)
(33.5634 0.308701 0)
(33.5887 0.346202 0)
(33.6145 0.389436 0)
(33.6405 0.439332 0)
(33.6666 0.496972 0)
(33.6922 0.563609 0)
(33.7168 0.640697 0)
(33.7396 0.729902 0)
(33.7593 0.833135 0)
(33.7743 0.952554 0)
(33.7824 1.09058 0)
(33.7804 1.24987 0)
(33.7642 1.43329 0)
(33.7286 1.64385 0)
(33.6664 1.88456 0)
(33.5687 2.15828 0)
(33.4247 2.46739 0)
(33.2209 2.81336 0)
(32.9416 3.19618 0)
(32.568 3.61377 0)
(32.0789 4.06116 0)
(31.4506 4.52973 0)
(30.6579 5.00626 0)
(29.6767 5.47221 0)
(28.4806 5.90264 0)
(27.0561 6.2661 0)
(25.3612 6.52061 0)
(23.4525 6.62193 0)
(21.1259 6.48054 0)
(18.7218 6.08434 0)
(15.315 5.18214 0)
(12.4295 3.81379 0)
(4.37603 4.87774 0)
(2.71716 2.73216 0)
(1.84655 0.73649 0)
(1.24705 0.357001 0)
(0.992603 0.281475 0)
(0.862947 0.153354 0)
(0.790132 0.0572147 0)
(0.74654 0.0403366 0)
(0.693297 0.0637768 0)
(0.630333 0.0678276 0)
(0.582774 0.0425235 0)
(0.558404 0.0137463 0)
(0.547058 0.000104335 0)
(0.538584 0.00289764 0)
(0.52761 0.0158674 0)
(0.510935 0.0331122 0)
(0.487912 0.0476649 0)
(0.460753 0.0548938 0)
(0.434188 0.0493553 0)
(0.41376 0.0348361 0)
(0.401748 0.0196651 0)
(0.395813 0.00730247 0)
(0.393917 -0.00231748 0)
(0.395066 -0.00828031 0)
(0.398693 -0.00948839 0)
(0.401468 -0.00551479 0)
(0.400523 0.00318564 0)
(0.394306 0.0169254 0)
(0.380239 0.0356815 0)
(0.35668 0.0535561 0)
(0.325913 0.058008 0)
(0.296066 0.0452217 0)
(0.276577 0.0234539 0)
(0.26974 0.00581095 0)
(0.269926 -0.000351556 0)
(0.270995 -0.000183417 0)
(0.269688 -0.00118756 0)
(0.26622 -0.00235497 0)
(0.261019 0.00255849 0)
(0.251822 0.0119756 0)
(0.238035 0.0169606 0)
(0.222466 0.0172178 0)
(0.207834 0.0157687 0)
(0.194847 0.0149922 0)
(0.182741 0.0163273 0)
(0.169897 0.0194198 0)
(0.155396 0.0216529 0)
(0.140883 0.0208661 0)
(0.128843 0.0181988 0)
(0.119878 0.0159567 0)
(0.11281 0.0152945 0)
(0.106227 0.0159802 0)
(0.0991174 0.0179466 0)
(0.0909208 0.0196874 0)
(0.0826262 0.0174031 0)
(0.0764299 0.0104672 0)
(0.0740951 0.00227042 0)
(0.0750808 -0.00320061 0)
(0.0775164 -0.00529291 0)
(0.0800484 -0.00575108 0)
(0.0824199 -0.00600211 0)
(0.0847511 -0.00635856 0)
(0.0869082 -0.00614007 0)
(0.0883757 -0.00450288 0)
(0.0883078 -0.00151698 0)
(0.0865136 0.00172597 0)
(0.0834732 0.0042476 0)
(0.0796368 0.00575929 0)
(0.075431 0.00635659 0)
(0.071213 0.00632926 0)
(0.0671817 0.00606981 0)
(0.0633098 0.00589741 0)
(0.0594531 0.00587437 0)
(0.055533 0.00587201 0)
(0.0515927 0.00576101 0)
(0.0477287 0.00552522 0)
(0.0440096 0.00524366 0)
(0.0404543 0.00499679 0)
(0.0370606 0.00480504 0)
(0.0338231 0.00466723 0)
(0.0307181 0.00456715 0)
(0.0277687 0.00439875 0)
(0.0251115 0.00405205 0)
(0.0228699 0.0036573 0)
(0.0210114 0.0034549 0)
(0.0194121 0.00351356 0)
(0.017939 0.00380512 0)
(0.0164692 0.00425224 0)
(0.0149607 0.00466681 0)
(0.0134798 0.00484746 0)
(0.0121272 0.00472612 0)
(0.0109447 0.00441525 0)
(0.00989145 0.00408203 0)
(0.00892145 0.00383266 0)
(0.00811662 0.00363338 0)
(0.00760556 0.0035692 0)
(0.00735656 0.00353704 0)
(0.00740562 0.0029866 0)
(0.00809453 0.00168941 0)
(0.00963231 -3.63581e-05 0)
(0.011821 -0.00171565 0)
(0.0143439 -0.00305982 0)
(0.0169655 -0.00418047 0)
(0.0195682 -0.00533666 0)
(0.0220858 -0.00648122 0)
(0.0244495 -0.00720567 0)
(0.0265237 -0.00703846 0)
(0.02797 -0.00591323 0)
(0.0284695 -0.0041281 0)
(0.0280177 -0.00215584 0)
(0.0267419 -0.000356358 0)
(0.0247913 0.000991318 0)
(0.0223297 0.00196079 0)
(0.0195039 0.00281742 0)
(0.0163676 0.00370241 0)
(0.0129018 0.00454422 0)
(0.00918896 0.00519237 0)
(0.00534809 0.00562105 0)
(0.00146338 0.00585634 0)
(-0.00240301 0.00592307 0)
(-0.00617894 0.00582232 0)
(-0.00978951 0.00551412 0)
(-0.0131378 0.00489995 0)
(-0.0160518 0.00383776 0)
(-0.0182269 0.0022233 0)
(-0.0190125 0.000122446 0)
(-0.0179088 -0.00160933 0)
(-0.0156557 -0.00191033 0)
(-0.0145181 -0.000929821 0)
(-0.0153924 -0.0011532 0)
(-0.0164952 -0.00353262 0)
(-0.0155262 -0.00561434 0)
(-0.0124976 -0.00586168 0)
(-0.00926745 -0.00499605 0)
(-0.00685583 -0.00432088 0)
(-0.00501196 -0.00424008 0)
(-0.00313758 -0.00456586 0)
(-0.000816372 -0.00505966 0)
(0.00208754 -0.00542 0)
(0.00529195 -0.00540747 0)
(0.00847368 -0.0051658 0)
(0.0116404 -0.00516348 0)
(0.0150941 -0.00568592 0)
(0.0191264 -0.00633937 0)
(0.0236449 -0.00668138 0)
(0.028238 -0.00682241 0)
(0.0325317 -0.00722807 0)
(0.0365813 -0.00843555 0)
(0.0410396 -0.0106712 0)
(0.0467097 -0.013225 0)
(0.0538168 -0.0147776 0)
(0.0619624 -0.0150741 0)
(0.0705506 -0.0149734 0)
(0.0792947 -0.0154008 0)
(0.0883311 -0.0166889 0)
(0.0980298 -0.0182416 0)
(0.108634 -0.018952 0)
(0.119928 -0.0178586 0)
(0.130945 -0.014568 0)
(0.140423 -0.00995357 0)
(0.148147 -0.00578662 0)
(0.154078 -0.00105996 0)
(0.156179 0.00892632 0)
(0.157486 -0.00106022 0)
(0.166442 -0.0237931 0)
(0.185215 -0.0382672 0)
(0.206611 -0.0373423 0)
(0.222613 -0.0261034 0)
(0.2328 -0.0186786 0)
(0.241336 -0.0159478 0)
(0.251252 -0.0138989 0)
(0.262362 -0.0116655 0)
(0.273216 -0.00943868 0)
(0.28369 -0.00889195 0)
(0.296564 -0.0163489 0)
(0.314073 -0.0242572 0)
(0.334655 -0.0277757 0)
(0.35566 -0.0256501 0)
(0.374049 -0.0177921 0)
(0.387033 -0.00583711 0)
(0.39429 0.00502084 0)
(0.398094 0.00853555 0)
(0.402011 0.00143998 0)
(0.410365 -0.0142205 0)
(0.426686 -0.0324723 0)
(0.451126 -0.0452586 0)
(0.479386 -0.0469959 0)
(0.505232 -0.0383948 0)
(0.524214 -0.0251663 0)
(0.536017 -0.0132643 0)
(0.542828 -0.004133 0)
(0.546046 0.00459544 0)
(0.544722 0.0155589 0)
(0.535967 0.0296458 0)
(0.516389 0.0445429 0)
(0.490701 0.0545081 0)
(41.8988 0.00119092 0)
(49.2317 0.00514069 0)
(32.9157 0.0100572 0)
(28.1907 0.0157945 0)
(31.6445 0.0218331 0)
(34.0374 0.0273248 0)
(33.8642 0.0325151 0)
(33.1042 0.037964 0)
(32.8712 0.043873 0)
(33.0042 0.0502814 0)
(33.1184 0.0572616 0)
(33.1169 0.0649452 0)
(33.0759 0.0734864 0)
(33.0528 0.0830442 0)
(33.0469 0.0937851 0)
(33.0408 0.105892 0)
(33.028 0.119577 0)
(33.0109 0.135084 0)
(32.9923 0.152704 0)
(32.9722 0.172769 0)
(32.9498 0.195672 0)
(32.9245 0.221869 0)
(32.8962 0.251891 0)
(32.8648 0.286365 0)
(32.8303 0.326022 0)
(32.7924 0.371728 0)
(32.7511 0.424503 0)
(32.7066 0.485551 0)
(32.6589 0.556301 0)
(32.6085 0.638443 0)
(32.5561 0.733975 0)
(32.5024 0.845259 0)
(32.4489 0.975076 0)
(32.3971 1.12668 0)
(32.3493 1.30385 0)
(32.308 1.51095 0)
(32.2765 1.75291 0)
(32.2581 2.03523 0)
(32.2558 2.36381 0)
(32.2722 2.74469 0)
(32.3082 3.18364 0)
(32.3624 3.68556 0)
(32.4297 4.25368 0)
(32.5001 4.88867 0)
(32.5568 5.58739 0)
(32.5751 6.34167 0)
(32.519 7.13665 0)
(32.342 7.95135 0)
(31.9805 8.75537 0)
(31.3558 9.51911 0)
(30.3723 10.2021 0)
(28.8833 10.7782 0)
(26.7919 11.3791 0)
(24.0027 12.0521 0)
(20.689 13.7084 0)
(15.0451 10.3747 0)
(11.6987 3.93839 0)
(3.77547 1.88335 0)
(2.17759 1.00095 0)
(1.90817 0.424925 0)
(1.68335 0.110253 0)
(1.32362 0.154232 0)
(1.0494 0.245661 0)
(0.918757 0.21318 0)
(0.855937 0.14042 0)
(0.824182 0.0769725 0)
(0.803622 0.0470645 0)
(0.78466 0.0453038 0)
(0.763804 0.0575697 0)
(0.739063 0.0791293 0)
(0.710894 0.0950597 0)
(0.676061 0.100565 0)
(0.640554 0.087998 0)
(0.618106 0.0576289 0)
(0.612368 0.030964 0)
(0.612276 0.0167413 0)
(0.610333 0.00100687 0)
(0.608795 -0.0148566 0)
(0.610432 -0.0176819 0)
(0.612909 -0.00299699 0)
(0.61374 0.0215107 0)
(0.610695 0.0464294 0)
(0.598895 0.0761185 0)
(0.573486 0.103122 0)
(0.530402 0.114276 0)
(0.482297 0.102261 0)
(0.455189 0.0558274 0)
(0.459021 0.0133355 0)
(0.478967 -0.00370459 0)
(0.493087 -0.00684209 0)
(0.490443 0.00693934 0)
(0.481478 0.0174931 0)
(0.468744 0.0284515 0)
(0.443984 0.0449071 0)
(0.412729 0.0558869 0)
(0.388949 0.0577567 0)
(0.373925 0.0543278 0)
(0.356374 0.0491578 0)
(0.327051 0.0479346 0)
(0.28707 0.0526749 0)
(0.245756 0.0564116 0)
(0.213167 0.0508971 0)
(0.191027 0.0390062 0)
(0.17481 0.0291174 0)
(0.162934 0.0256054 0)
(0.156495 0.0265344 0)
(0.15323 0.0292763 0)
(0.147428 0.0303868 0)
(0.137554 0.0263455 0)
(0.128229 0.0158782 0)
(0.12558 0.00243399 0)
(0.12816 -0.00631485 0)
(0.131831 -0.00977837 0)
(0.133737 -0.0113721 0)
(0.133974 -0.0128389 0)
(0.134067 -0.0124476 0)
(0.134922 -0.00897808 0)
(0.136175 -0.00290016 0)
(0.13597 0.0047355 0)
(0.132592 0.0114417 0)
(0.126652 0.0157963 0)
(0.119568 0.0176804 0)
(0.112176 0.0176029 0)
(0.105124 0.0166668 0)
(0.0988978 0.0158533 0)
(0.0934163 0.0156647 0)
(0.0880889 0.015874 0)
(0.0824357 0.0160315 0)
(0.0764926 0.0159324 0)
(0.0705776 0.0155506 0)
(0.0648407 0.0149721 0)
(0.059262 0.0143346 0)
(0.0538338 0.0136413 0)
(0.0485255 0.0128417 0)
(0.0431923 0.0119303 0)
(0.0377701 0.0107751 0)
(0.0325262 0.009279 0)
(0.0277994 0.00792339 0)
(0.023657 0.00733257 0)
(0.0200733 0.00755569 0)
(0.0170997 0.0084094 0)
(0.0146901 0.00960574 0)
(0.0127674 0.010577 0)
(0.0114523 0.0110556 0)
(0.0110045 0.0111696 0)
(0.0116916 0.0112351 0)
(0.0136571 0.0113554 0)
(0.0167495 0.0110492 0)
(0.0206835 0.00937714 0)
(0.0247368 0.00661746 0)
(0.0275373 0.00389333 0)
(0.0288626 0.000229204 0)
(0.0302914 -0.00482378 0)
(0.0333098 -0.00959246 0)
(0.0379644 -0.0129783 0)
(0.0431066 -0.0148756 0)
(0.0475198 -0.0157937 0)
(0.0509399 -0.0158605 0)
(0.0538797 -0.0145694 0)
(0.0566638 -0.0121578 0)
(0.059094 -0.00887253 0)
(0.0604762 -0.00468276 0)
(0.0601363 -0.000608159 0)
(0.0579935 0.00236968 0)
(0.0541787 0.00458594 0)
(0.0493856 0.00655282 0)
(0.0447477 0.00874815 0)
(0.0406846 0.0112345 0)
(0.0367887 0.0134744 0)
(0.0324823 0.0150254 0)
(0.0277052 0.0157574 0)
(0.0227783 0.015836 0)
(0.0178225 0.0154426 0)
(0.0127822 0.0147447 0)
(0.00752186 0.0138258 0)
(0.00183114 0.0126158 0)
(-0.00449476 0.0109124 0)
(-0.0114707 0.00847185 0)
(-0.0184836 0.00511737 0)
(-0.0239926 -0.000880263 0)
(-0.0292985 -0.00785325 0)
(-0.0355366 -0.00888971 0)
(-0.0373543 0.000983935 0)
(-0.0297696 0.00905873 0)
(-0.0162887 0.00460619 0)
(-0.00391379 -0.00522456 0)
(0.00147281 -0.0106427 0)
(0.00179041 -0.00960208 0)
(0.00153988 -0.00709964 0)
(0.00259487 -0.0065619 0)
(0.00493499 -0.0076492 0)
(0.00834229 -0.0100432 0)
(0.0127855 -0.0118349 0)
(0.0182786 -0.0117513 0)
(0.0252504 -0.01099 0)
(0.0342216 -0.0105732 0)
(0.0448865 -0.0118924 0)
(0.0558871 -0.0142446 0)
(0.0654695 -0.0158764 0)
(0.07235 -0.0157016 0)
(0.0770844 -0.0143225 0)
(0.0818912 -0.0139188 0)
(0.0883205 -0.0167398 0)
(0.0961834 -0.0225313 0)
(0.104587 -0.0284028 0)
(0.112211 -0.0327424 0)
(0.117928 -0.0349222 0)
(0.124075 -0.0350848 0)
(0.134562 -0.0352914 0)
(0.150559 -0.0369066 0)
(0.170413 -0.0394519 0)
(0.191405 -0.0408971 0)
(0.209472 -0.0383213 0)
(0.225913 -0.0299553 0)
(0.248313 -0.0218234 0)
(0.269007 -0.019016 0)
(0.266305 -0.00769505 0)
(0.245848 -0.0271549 0)
(0.242305 -0.0609657 0)
(0.27283 -0.0769258 0)
(0.303301 -0.0730421 0)
(0.318248 -0.0506329 0)
(0.330787 -0.0280627 0)
(0.34776 -0.0292681 0)
(0.368133 -0.0330505 0)
(0.395913 -0.0346578 0)
(0.426651 -0.039184 0)
(0.440138 -0.0516199 0)
(0.444795 -0.0706262 0)
(0.465902 -0.0820818 0)
(0.498054 -0.0847901 0)
(0.531881 -0.0790247 0)
(0.563888 -0.0632641 0)
(0.591639 -0.0403922 0)
(0.612846 -0.0228993 0)
(0.626439 -0.0174654 0)
(0.635023 -0.0283261 0)
(0.647592 -0.0541487 0)
(0.67089 -0.086965 0)
(0.703667 -0.110218 0)
(0.740598 -0.111955 0)
(0.775808 -0.0940606 0)
(0.801036 -0.0667973 0)
(0.814984 -0.0418576 0)
(0.823868 -0.0222679 0)
(0.83192 -0.00376213 0)
(0.837032 0.0207677 0)
(0.83248 0.0554672 0)
(0.809519 0.0944592 0)
(0.772572 0.118471 0)
(41.9064 0.00446234 0)
(49.2532 0.0208378 0)
(32.9402 0.0335393 0)
(28.2097 0.0417977 0)
(31.6593 0.0488827 0)
(34.0518 0.056556 0)
(33.8801 0.0650092 0)
(33.1215 0.0739558 0)
(32.8893 0.0833109 0)
(33.023 0.0932264 0)
(33.1384 0.103934 0)
(33.1385 0.115643 0)
(33.0993 0.128533 0)
(33.0783 0.142793 0)
(33.0747 0.158644 0)
(33.0713 0.176339 0)
(33.0614 0.196159 0)
(33.0477 0.218419 0)
(33.0328 0.243472 0)
(33.0167 0.271715 0)
(32.9987 0.303597 0)
(32.978 0.339622 0)
(32.9545 0.380359 0)
(32.9281 0.426447 0)
(32.8985 0.478605 0)
(32.8653 0.53764 0)
(32.8283 0.604457 0)
(32.7871 0.680068 0)
(32.7414 0.765604 0)
(32.6911 0.862327 0)
(32.6358 0.971642 0)
(32.5755 1.09511 0)
(32.5102 1.23448 0)
(32.4402 1.39169 0)
(32.3661 1.56892 0)
(32.2888 1.76861 0)
(32.2099 1.99354 0)
(32.1317 2.24688 0)
(32.0573 2.53233 0)
(31.9911 2.85433 0)
(31.9385 3.21821 0)
(31.9063 3.63044 0)
(31.9021 4.09869 0)
(31.9336 4.63184 0)
(32.0077 5.23982 0)
(32.1284 5.93319 0)
(32.2945 6.72238 0)
(32.4961 7.61733 0)
(32.7147 8.62673 0)
(32.9115 9.75888 0)
(33.0541 11.0269 0)
(33.0554 12.4369 0)
(32.9415 14.0537 0)
(32.4903 15.8625 0)
(32.2235 18.2333 0)
(30.9934 19.7142 0)
(28.6183 19.184 0)
(25.2535 18.7253 0)
(15.8369 7.70616 0)
(8.7766 1.33187 0)
(5.63402 0.118714 0)
(2.43195 0.608355 0)
(1.60664 0.714382 0)
(1.50252 0.418686 0)
(1.47532 0.194873 0)
(1.3321 0.0623207 0)
(1.05599 0.0493691 0)
(0.867035 0.0753216 0)
(0.798946 0.100804 0)
(0.787297 0.147273 0)
(0.83954 0.176864 0)
(0.86365 0.214383 0)
(0.847328 0.168338 0)
(0.843852 0.0926169 0)
(0.850781 0.0345378 0)
(0.845034 0.0139047 0)
(0.823991 0.00623349 0)
(0.806101 -0.00596162 0)
(0.800584 -0.0124244 0)
(0.794752 -0.00741429 0)
(0.778724 0.00476834 0)
(0.757449 0.0247344 0)
(0.740485 0.0764475 0)
(0.797265 0.223265 0)
(0.834321 0.264025 0)
(0.801313 0.181217 0)
(0.74336 0.0538799 0)
(0.694887 -0.0639741 0)
(0.774843 -0.0633572 0)
(0.927701 0.0152644 0)
(1.01523 0.0372616 0)
(1.00811 0.000578896 0)
(0.911479 0.0280925 0)
(0.726208 0.173923 0)
(0.65667 0.168379 0)
(0.692113 0.122008 0)
(0.795716 0.104515 0)
(0.895336 0.108372 0)
(0.872008 0.106437 0)
(0.70632 0.128976 0)
(0.523556 0.145578 0)
(0.428067 0.109636 0)
(0.375625 0.0741479 0)
(0.309278 0.0543924 0)
(0.236726 0.0462973 0)
(0.199611 0.0327169 0)
(0.207252 0.0305317 0)
(0.237924 0.0601702 0)
(0.24959 0.0638066 0)
(0.249161 0.0339536 0)
(0.241027 -0.005106 0)
(0.222479 -0.0215294 0)
(0.200827 -0.015528 0)
(0.188833 -0.00770416 0)
(0.202182 -0.000515424 0)
(0.236511 -0.00152081 0)
(0.260631 -0.00872598 0)
(0.254424 -0.00898043 0)
(0.233697 0.00375967 0)
(0.209238 0.0175823 0)
(0.186147 0.0255742 0)
(0.168213 0.0300663 0)
(0.158896 0.032612 0)
(0.155861 0.0310195 0)
(0.153309 0.0274009 0)
(0.149124 0.0255192 0)
(0.142949 0.0263059 0)
(0.136773 0.0280608 0)
(0.13092 0.0283974 0)
(0.124624 0.0274128 0)
(0.118056 0.0266088 0)
(0.111681 0.0264105 0)
(0.10579 0.0262344 0)
(0.100341 0.0263073 0)
(0.0959081 0.0277156 0)
(0.0941764 0.029296 0)
(0.0941876 0.0279835 0)
(0.0927254 0.0248734 0)
(0.0885838 0.0223212 0)
(0.0804301 0.0186747 0)
(0.0661002 0.013714 0)
(0.0466832 0.00998657 0)
(0.0267102 0.00736676 0)
(0.00914234 0.00410292 0)
(-0.0070704 -0.00066178 0)
(-0.0240512 -0.006141 0)
(-0.0431704 -0.0113489 0)
(-0.0636003 -0.0159568 0)
(-0.0793531 -0.0204561 0)
(-0.0847189 -0.0178756 0)
(-0.0811436 -0.00809835 0)
(-0.0725943 -0.00420286 0)
(-0.0586991 -0.00988178 0)
(-0.0385955 -0.0176044 0)
(-0.0159108 -0.0214197 0)
(0.00781798 -0.0189423 0)
(0.0351163 -0.0128797 0)
(0.0664228 -0.00960796 0)
(0.0930725 -0.0109771 0)
(0.102225 -0.013628 0)
(0.0980722 -0.0125321 0)
(0.0879296 -0.00767962 0)
(0.0716726 0.000235763 0)
(0.0592585 0.0117661 0)
(0.0590557 0.0225942 0)
(0.0692596 0.0266333 0)
(0.0802153 0.0244062 0)
(0.0832383 0.0211841 0)
(0.077835 0.0206581 0)
(0.07059 0.0221791 0)
(0.064283 0.0228982 0)
(0.0594185 0.0233297 0)
(0.0566971 0.0243068 0)
(0.0560618 0.0255043 0)
(0.0559555 0.0271914 0)
(0.0549518 0.0297429 0)
(0.0519954 0.0325803 0)
(0.0444819 0.0333101 0)
(0.0320512 0.0298355 0)
(0.0303661 0.0219284 0)
(-0.00439 0.0116357 0)
(-0.117409 0.00258694 0)
(-0.244347 0.0304988 0)
(-0.26551 0.0616442 0)
(-0.174633 0.0579963 0)
(-0.0479341 0.0487846 0)
(0.0281125 0.0229472 0)
(0.0381594 0.00155761 0)
(0.0330707 -0.0106656 0)
(0.0515869 -0.0149515 0)
(0.0717843 -0.0135009 0)
(0.0681856 -0.0116408 0)
(0.0172368 -0.0186252 0)
(-0.0223876 -0.0251744 0)
(-0.0583041 -0.0149991 0)
(-0.0597286 0.00350771 0)
(-0.00745983 0.0175611 0)
(0.0846055 0.0247432 0)
(0.188751 0.0248719 0)
(0.247313 0.0135815 0)
(0.230584 -0.00380219 0)
(0.183468 -0.0146695 0)
(0.149879 -0.0187683 0)
(0.151314 -0.0211744 0)
(0.17435 -0.023681 0)
(0.219057 -0.0338085 0)
(0.234751 -0.0593791 0)
(0.201286 -0.0805146 0)
(0.170713 -0.0812834 0)
(0.172336 -0.0674552 0)
(0.224996 -0.0621757 0)
(0.309662 -0.0740383 0)
(0.359967 -0.112038 0)
(0.353002 -0.138048 0)
(0.344195 -0.143617 0)
(0.372299 -0.184529 0)
(0.432254 0.185137 0)
(0.557903 0.0862912 0)
(0.545197 -0.0957391 0)
(0.498593 -0.196176 0)
(0.432989 -0.178691 0)
(0.272037 0.0570894 0)
(0.237489 0.0947684 0)
(0.405011 0.0272184 0)
(0.475157 -0.0220721 0)
(0.519681 -0.0661426 0)
(0.576433 -0.0380718 0)
(0.654953 0.0512008 0)
(0.662829 -0.0523709 0)
(0.648284 -0.126202 0)
(0.63611 -0.15649 0)
(0.63359 -0.158091 0)
(0.645158 -0.14702 0)
(0.689556 -0.109456 0)
(0.759236 -0.0532869 0)
(0.810512 -0.0238059 0)
(0.858001 -0.0342894 0)
(0.896814 -0.079579 0)
(0.928979 -0.141363 0)
(0.948527 -0.18957 0)
(0.958036 -0.195537 0)
(0.961079 -0.157586 0)
(0.970654 -0.0920253 0)
(0.998423 -0.0500969 0)
(1.01915 -0.037393 0)
(1.03559 -0.0223836 0)
(1.04831 0.0126753 0)
(1.04571 0.0710945 0)
(1.01306 0.144703 0)
(0.952807 0.199594 0)
(41.9104 0.00364786 0)
(49.2599 0.0158797 0)
(32.941 0.0246571 0)
(28.2082 0.0304057 0)
(31.6593 0.0363871 0)
(34.0536 0.0436478 0)
(33.8829 0.0517079 0)
(33.125 0.060141 0)
(32.8938 0.0690483 0)
(33.029 0.0787296 0)
(33.1463 0.0894124 0)
(33.1487 0.101247 0)
(33.1122 0.114393 0)
(33.0943 0.129052 0)
(33.0943 0.145464 0)
(33.095 0.163891 0)
(33.0899 0.18462 0)
(33.0817 0.207973 0)
(33.073 0.234313 0)
(33.0641 0.264051 0)
(33.0543 0.297652 0)
(33.043 0.335637 0)
(33.0303 0.378597 0)
(33.0161 0.427194 0)
(33.0005 0.482176 0)
(32.9833 0.544382 0)
(32.9645 0.614753 0)
(32.944 0.694344 0)
(32.9218 0.78433 0)
(32.898 0.886018 0)
(32.8726 1.00085 0)
(32.8457 1.13043 0)
(32.8176 1.27649 0)
(32.7885 1.44091 0)
(32.7588 1.62573 0)
(32.7288 1.83311 0)
(32.6993 2.06532 0)
(32.6709 2.32475 0)
(32.6447 2.61389 0)
(32.622 2.93534 0)
(32.6046 3.29183 0)
(32.5949 3.68642 0)
(32.5965 4.12265 0)
(32.6139 4.60503 0)
(32.654 5.13957 0)
(32.7253 5.73465 0)
(32.8395 6.40195 0)
(33.0102 7.15736 0)
(33.2545 8.02203 0)
(33.5888 9.02135 0)
(34.0354 10.1872 0)
(34.6008 11.5462 0)
(35.3215 13.134 0)
(36.1625 14.932 0)
(37.2015 16.9652 0)
(38.4978 19.217 0)
(39.4093 21.1692 0)
(40.5179 23.5397 0)
(39.7419 23.0953 0)
(37.2751 20.8058 0)
(32.329 17.0164 0)
(26.602 12.4626 0)
(18.0007 4.41331 0)
(11.1248 0.822504 0)
(5.62057 0.335387 0)
(3.57657 0.0890999 0)
(1.52497 0.213964 0)
(0.628713 0.136846 0)
(0.23986 -0.076606 0)
(0.16559 -0.0984156 0)
(0.281399 -0.639338 0)
(1.04654 0.40142 0)
(1.3773 0.212722 0)
(1.44053 0.0195262 0)
(1.39335 -0.0352986 0)
(1.23746 0.0861018 0)
(1.15947 0.103387 0)
(1.10267 0.0158465 0)
(1.03194 -0.0286362 0)
(0.942437 0.0216602 0)
(0.796535 0.11205 0)
(0.624334 0.152308 0)
(0.0280818 0.435316 0)
(0.351764 0.172875 0)
(1.53777 0.422852 0)
(1.57539 0.447421 0)
(1.60332 0.248195 0)
(1.61439 -0.0787338 0)
(1.6443 -0.421452 0)
(1.66216 -0.609414 0)
(1.9582 0.0490141 0)
(2.51642 0.288109 0)
(2.72656 0.657192 0)
(2.48297 0.450135 0)
(2.31738 0.0381675 0)
(2.24283 -0.318905 0)
(2.54218 -0.576092 0)
(3.20592 -0.370703 0)
(3.65439 0.71318 0)
(3.25932 1.01047 0)
(2.90315 0.713105 0)
(2.71187 0.389387 0)
(2.29923 0.304471 0)
(1.77817 0.29294 0)
(1.1445 0.232665 0)
(0.6932 0.0284084 0)
(0.40456 -0.104846 0)
(0.3617 -0.0689171 0)
(0.421545 0.0580352 0)
(0.530378 0.074463 0)
(0.644602 0.0503953 0)
(0.625977 0.0516528 0)
(0.392932 0.0411983 0)
(0.0609667 0.0299646 0)
(0.0785526 -0.0386011 0)
(0.40828 -0.0651049 0)
(0.765691 0.0236454 0)
(0.810365 0.0460117 0)
(0.613471 0.0356422 0)
(0.465363 0.0149249 0)
(0.36168 -0.000261728 0)
(0.26494 0.0190968 0)
(0.198878 0.0777355 0)
(0.229197 0.101238 0)
(0.265575 0.0993672 0)
(0.290885 0.0808032 0)
(0.252641 0.060784 0)
(0.228425 0.050822 0)
(0.237308 0.0431893 0)
(0.25783 0.0289623 0)
(0.257532 0.0187695 0)
(0.249981 0.0152104 0)
(0.246806 0.00985548 0)
(0.237382 -0.00057955 0)
(0.223276 -0.00964913 0)
(0.247655 -0.0127203 0)
(0.313245 -0.0150921 0)
(0.390868 -0.0105532 0)
(0.483986 0.00719994 0)
(0.593745 0.0201231 0)
(0.659188 0.0236678 0)
(0.633735 0.046571 0)
(0.581625 0.0211732 0)
(0.552382 -0.00688279 0)
(0.539509 -0.0276622 0)
(0.494631 -0.0408107 0)
(0.367633 -0.0406328 0)
(0.137874 -0.0195033 0)
(-0.142276 0.0014542 0)
(-0.441946 0.00997164 0)
(-0.64537 0.026684 0)
(-0.659472 0.0442955 0)
(-0.631339 0.0306077 0)
(-0.628519 0.0124962 0)
(-0.642807 0.00361642 0)
(-0.648006 -0.0172553 0)
(-0.593243 -0.0650342 0)
(-0.410379 -0.125008 0)
(-0.204157 -0.0810012 0)
(-0.136939 -0.0288387 0)
(-0.163755 0.00541853 0)
(-0.153913 0.0360916 0)
(-0.264238 0.0440098 0)
(-0.448773 0.0179554 0)
(-0.528189 -0.00296732 0)
(-0.366844 0.00877188 0)
(-0.12474 0.0519047 0)
(0.0742469 0.0700499 0)
(0.102701 0.0682631 0)
(0.0776533 0.0558835 0)
(0.0850862 0.0415792 0)
(0.0847527 0.0268918 0)
(0.0776098 0.0216813 0)
(0.076178 0.0261543 0)
(0.111185 0.0345377 0)
(0.17816 0.0447809 0)
(0.325578 0.0539931 0)
(0.667707 0.0456097 0)
(1.24108 0.017086 0)
(1.99648 -0.0468812 0)
(2.91239 0.118316 0)
(4.01032 0.372017 0)
(4.62987 0.167853 0)
(5.29682 -0.373828 0)
(6.14043 -0.934119 0)
(7.02623 -0.900624 0)
(8.05775 -0.30903 0)
(9.04114 0.0556049 0)
(10.2391 0.031242 0)
(11.0208 -0.0739016 0)
(11.4132 -0.0825354 0)
(11.7496 0.0526546 0)
(11.7358 0.222818 0)
(11.6542 0.263479 0)
(12.0007 0.0665233 0)
(12.4751 -0.279721 0)
(12.9207 -0.602036 0)
(13.3816 -0.813748 0)
(13.7768 -0.774776 0)
(14.0092 -0.384652 0)
(14.1174 0.0231933 0)
(14.2674 0.0956589 0)
(14.4154 0.0048723 0)
(14.5485 -0.15255 0)
(14.7148 -0.262848 0)
(14.7707 -0.203276 0)
(14.6892 0.137744 0)
(14.4487 0.328981 0)
(14.2848 0.112238 0)
(14.0395 -0.147373 0)
(13.6535 -0.333113 0)
(13.165 -0.349725 0)
(12.4939 0.18148 0)
(11.715 0.645254 0)
(10.9516 0.592365 0)
(8.80576 0.441979 0)
(9.58476 0.894562 0)
(3.2155 0.324963 0)
(1.69934 -0.0385485 0)
(0.956606 -0.153599 0)
(-0.173255 -0.0120106 0)
(0.295152 -0.300013 0)
(1.72655 -1.23742 0)
(3.24881 -1.17992 0)
(4.87947 -0.569598 0)
(5.60356 -0.353319 0)
(6.44149 -0.154449 0)
(5.93243 0.283752 0)
(2.14806 0.0247536 0)
(1.45496 -0.130141 0)
(1.04404 -0.209221 0)
(0.956387 -0.233771 0)
(1.01361 -0.254818 0)
(1.26832 -0.249652 0)
(1.11613 -0.115845 0)
(0.989637 -0.0679994 0)
(1.06683 -0.103661 0)
(1.10684 -0.154622 0)
(1.15497 -0.177476 0)
(1.17145 -0.178336 0)
(1.14488 -0.169062 0)
(0.97224 -0.149858 0)
(0.804528 -0.095865 0)
(1.04909 -0.104123 0)
(1.09934 -0.0831559 0)
(1.12332 -0.0535384 0)
(1.14306 -0.00826118 0)
(1.15173 0.0932332 0)
(1.12182 0.288357 0)