/*--------------------------------*- C++ -*----------------------------------*\
| =========                 |                                                 |
| \\      /  F ield         | OpenFOAM: The Open Source CFD Toolbox           |
|  \\    /   O peration     | Version:  2406                                  |
|   \\  /    A nd           | Website:  www.openfoam.com                      |
|    \\/     M anipulation  |                                                 |
\*---------------------------------------------------------------------------*/
FoamFile
{
    version     2.0;
    format      ascii;
    arch        "LSB;label=32;scalar=64";
    class       surfaceScalarField;
    location    "0.2";
    object      phi;
}
// * * * * * * * * * * * * * * * * * * * * * * * * * * * * * * * * * * * * * //

dimensions      [0 3 -1 0 0 0 0];

oriented        oriented;

internalField   nonuniform List<scalar> 
4335
(
3.78224e-05
1.73316e-11
3.78224e-05
1.78958e-11
3.78223e-05
1.18058e-11
3.78223e-05
7.67842e-12
3.78223e-05
4.12647e-12
3.78223e-05
1.58519e-11
3.78223e-05
1.17664e-11
3.78223e-05
6.50643e-12
3.78223e-05
8.45744e-12
3.78223e-05
1.5912e-11
3.78223e-05
1.73733e-11
3.78223e-05
1.80634e-11
3.78223e-05
1.41121e-11
3.78223e-05
4.58028e-12
3.78223e-05
1.67322e-12
3.78223e-05
-2.20798e-12
3.78222e-05
-1.27053e-11
3.78222e-05
-1.08617e-11
3.78222e-05
4.62668e-12
3.78222e-05
1.24011e-11
3.78222e-05
4.57137e-12
3.78222e-05
-1.03185e-11
3.78222e-05
-2.33349e-11
3.78222e-05
-2.89903e-11
3.78222e-05
-2.78731e-11
3.78223e-05
-2.20857e-11
3.78223e-05
-1.2138e-11
3.78223e-05
-2.64214e-12
3.78223e-05
-2.65675e-13
3.78223e-05
-4.69772e-12
3.78223e-05
-1.04264e-11
3.78223e-05
-1.56158e-11
3.78223e-05
-1.81425e-11
3.78223e-05
-1.42832e-11
3.78223e-05
-5.07256e-12
3.78223e-05
2.9323e-12
3.78223e-05
5.74789e-12
3.78223e-05
2.53603e-12
3.78223e-05
-4.35637e-12
3.78223e-05
-9.98827e-12
3.78223e-05
-1.17642e-11
3.78223e-05
-1.15151e-11
3.78223e-05
-1.00265e-11
3.78223e-05
-6.40458e-12
3.78223e-05
-1.50051e-12
3.78223e-05
2.56352e-12
3.78223e-05
3.97108e-12
3.78223e-05
2.01118e-12
3.78223e-05
-2.00929e-12
3.78223e-05
-5.57718e-12
3.78223e-05
-5.46898e-12
3.78223e-05
-2.69866e-12
3.78223e-05
-2.63679e-13
3.78223e-05
2.30343e-12
3.78223e-05
4.56218e-12
3.78223e-05
6.41403e-12
3.78223e-05
6.79698e-12
3.78223e-05
5.45928e-12
3.78223e-05
1.06612e-12
3.78223e-05
-4.67009e-12
3.78223e-05
-9.23963e-12
3.78223e-05
-1.01596e-11
3.78223e-05
-7.61875e-12
3.78223e-05
-5.16142e-12
3.78223e-05
-6.28584e-12
3.78223e-05
-9.29548e-12
3.78223e-05
-1.09587e-11
3.78223e-05
-1.04836e-11
3.78224e-05
-1.0048e-11
3.78224e-05
-1.07147e-11
3.78224e-05
-1.08883e-11
3.78224e-05
-9.54335e-12
3.78224e-05
-5.06669e-12
3.78224e-05
1.61544e-12
3.78224e-05
7.21872e-12
3.78224e-05
8.47592e-12
3.78224e-05
5.79447e-12
3.78224e-05
2.40072e-12
3.78224e-05
1.95129e-12
3.78224e-05
4.22433e-12
3.78224e-05
6.48602e-12
3.78224e-05
5.93765e-12
3.78224e-05
2.95644e-12
3.78224e-05
-3.03224e-13
3.78224e-05
6.20547e-14
3.78224e-05
3.44833e-12
3.78224e-05
6.11071e-12
3.78224e-05
5.98434e-12
3.78224e-05
4.98413e-12
3.78224e-05
5.54074e-12
3.78224e-05
6.37646e-12
3.78224e-05
5.15987e-12
3.78224e-05
1.36122e-12
3.78224e-05
-2.61335e-12
3.78224e-05
-4.36958e-12
3.78224e-05
-3.09769e-12
3.78224e-05
2.01438e-13
3.78224e-05
3.0809e-12
3.78224e-05
2.57339e-12
3.78224e-05
-1.94852e-12
3.78224e-05
-6.81214e-12
3.78224e-05
-7.39038e-12
3.78223e-05
-5.46038e-12
3.78223e-05
-3.93557e-12
3.78223e-05
-4.41346e-12
3.78223e-05
-5.49491e-12
3.78223e-05
-4.93056e-12
3.78223e-05
-3.04257e-12
3.78223e-05
-1.66158e-12
3.78223e-05
-2.38704e-12
3.78223e-05
-5.22122e-12
3.78223e-05
-7.52493e-12
3.78223e-05
-5.31333e-12
3.78223e-05
6.23922e-13
3.78223e-05
4.60386e-12
3.78224e-05
5.09558e-12
3.78224e-05
4.31147e-12
3.78224e-05
3.32425e-12
3.78224e-05
1.09891e-12
3.78224e-05
1.90541e-13
3.78223e-05
2.82549e-12
3.78223e-05
6.09589e-12
3.78223e-05
6.43924e-12
3.78223e-05
5.91534e-12
3.78223e-05
8.00189e-12
3.78223e-05
1.03708e-11
3.78223e-05
8.53708e-12
3.78223e-05
5.29292e-12
3.78223e-05
4.86592e-12
3.78223e-05
6.89008e-12
3.78223e-05
8.36983e-12
3.78222e-05
9.37559e-12
3.78222e-05
1.06633e-11
3.78222e-05
1.04468e-11
3.78222e-05
8.39135e-12
3.78222e-05
6.05952e-12
3.78222e-05
5.30154e-12
3.78222e-05
4.24916e-12
3.78222e-05
1.55007e-12
3.78222e-05
-1.11668e-12
3.78222e-05
-2.11425e-12
3.78222e-05
-2.23155e-12
3.78222e-05
-2.79695e-12
3.78222e-05
-3.50708e-12
3.78222e-05
-5.46253e-12
3.78222e-05
-7.22875e-12
3.78222e-05
-5.64764e-12
3.78222e-05
-5.34334e-12
3.78222e-05
-9.25401e-12
-1.46158e-11
0.000102234
3.81714e-11
0.000102234
5.95884e-11
0.000102234
7.30802e-11
0.000102234
8.44738e-11
0.000102234
8.42475e-11
0.000102234
1.06014e-10
0.000102234
1.11882e-10
0.000102234
1.09158e-10
0.000102234
1.01302e-10
0.000102234
9.12305e-11
0.000102234
7.28136e-11
0.000102233
6.15633e-11
0.000102233
6.46154e-11
0.000102233
5.86688e-11
0.000102233
4.16638e-11
0.000102233
2.56231e-11
0.000102233
1.24198e-11
0.000102233
8.68801e-12
0.000102233
1.26788e-11
0.000102233
1.1189e-11
0.000102233
1.84334e-12
0.000102233
-9.32325e-12
0.000102233
-1.8544e-11
0.000102233
-2.19739e-11
0.000102233
-1.909e-11
0.000102233
-1.71659e-11
0.000102233
-1.99068e-11
0.000102233
-2.24175e-11
0.000102233
-2.14585e-11
0.000102233
-1.82528e-11
0.000102233
-1.3946e-11
0.000102233
-1.0576e-11
0.000102233
-1.04758e-11
0.000102233
-1.09751e-11
0.000102233
-8.88243e-12
0.000102233
-7.67089e-12
0.000102233
-1.13409e-11
0.000102233
-1.8311e-11
0.000102233
-2.44697e-11
0.000102233
-2.59294e-11
0.000102233
-2.23336e-11
0.000102233
-1.7877e-11
0.000102233
-1.60335e-11
0.000102233
-1.43445e-11
0.000102233
-9.70268e-12
0.000102233
-2.85949e-12
0.000102233
3.52724e-12
0.000102233
6.28805e-12
0.000102233
2.81293e-12
0.000102233
-4.66652e-12
0.000102233
-8.735e-12
0.000102233
-5.16575e-12
0.000102233
4.09777e-12
0.000102233
1.21601e-11
0.000102233
1.48533e-11
0.000102233
1.18131e-11
0.000102233
6.2543e-12
0.000102233
1.82812e-12
0.000102233
-1.21168e-12
0.000102233
-5.78987e-12
0.000102233
-1.34969e-11
0.000102233
-2.12453e-11
0.000102233
-2.35505e-11
0.000102233
-1.92896e-11
0.000102233
-1.40809e-11
0.000102233
-1.38706e-11
0.000102233
-1.83863e-11
0.000102233
-2.25575e-11
0.000102233
-2.34194e-11
0.000102233
-2.15255e-11
0.000102233
-1.90635e-11
0.000102233
-1.74967e-11
0.000102233
-1.67106e-11
0.000102233
-1.44123e-11
0.000102233
-9.0973e-12
0.000102233
-3.43938e-12
0.000102233
-2.58741e-12
0.000102233
-8.0578e-12
0.000102233
-1.53044e-11
0.000102233
-1.84574e-11
0.000102233
-1.58726e-11
0.000102233
-1.01345e-11
0.000102233
-5.69238e-12
0.000102233
-4.68196e-12
0.000102233
-4.45709e-12
0.000102233
-1.3662e-12
0.000102233
3.72321e-12
0.000102233
4.92212e-12
0.000102233
8.19108e-13
0.000102233
-5.5527e-12
0.000102233
-7.85251e-12
0.000102233
-4.81007e-12
0.000102233
1.56266e-13
0.000102233
3.45962e-12
0.000102233
3.9393e-12
0.000102233
2.46707e-12
0.000102233
1.23339e-12
0.000102233
2.57608e-12
0.000102233
5.28606e-12
0.000102233
4.93627e-12
0.000102233
-7.61683e-14
0.000102233
-5.74487e-12
0.000102233
-7.50788e-12
0.000102233
-6.00879e-12
0.000102233
-5.56047e-12
0.000102233
-8.56023e-12
0.000102233
-1.29428e-11
0.000102233
-1.51901e-11
0.000102233
-1.37547e-11
0.000102233
-9.62032e-12
0.000102233
-6.57554e-12
0.000102233
-7.00112e-12
0.000102233
-8.8495e-12
0.000102233
-7.81551e-12
0.000102233
-3.60627e-12
0.000102233
-6.68217e-13
0.000102233
2.59956e-13
0.000102233
6.9583e-13
0.000102233
5.05506e-13
0.000102233
7.08939e-13
0.000102233
4.49013e-12
0.000102233
1.16276e-11
0.000102233
1.61765e-11
0.000102233
1.53681e-11
0.000102233
1.46397e-11
0.000102233
1.88328e-11
0.000102233
2.36174e-11
0.000102233
2.37278e-11
0.000102233
2.17173e-11
0.000102233
2.16919e-11
0.000102233
2.30587e-11
0.000102233
2.48087e-11
0.000102233
2.75366e-11
0.000102233
3.02759e-11
0.000102233
2.97014e-11
0.000102233
2.38831e-11
0.000102233
1.58911e-11
0.000102233
8.57287e-12
0.000102233
3.85349e-12
0.000102233
6.56506e-13
0.000102233
-2.94188e-12
0.000102233
-6.33457e-12
0.000102233
-7.16201e-12
0.000102233
-6.82764e-12
0.000102233
-8.9936e-12
0.000102233
-1.2777e-11
0.000102233
-1.85086e-11
0.000102233
-2.45487e-11
0.000102233
-3.80968e-11
-4.88372e-11
0.000155853
4.31928e-11
0.000155853
7.17028e-11
0.000155853
1.06016e-10
0.000155853
1.34465e-10
0.000155853
1.54906e-10
0.000155853
1.89549e-10
0.000155852
2.22322e-10
0.000155852
2.26111e-10
0.000155852
2.13691e-10
0.000155852
2.05339e-10
0.000155852
1.99288e-10
0.000155852
1.86925e-10
0.000155852
1.67848e-10
0.000155852
1.43176e-10
0.000155852
1.14921e-10
0.000155851
9.84798e-11
0.000155851
9.48304e-11
0.000155851
9.10243e-11
0.000155851
8.15092e-11
0.000155851
6.59854e-11
0.000155851
4.61798e-11
0.000155851
2.89443e-11
0.000155851
1.96557e-11
0.000155851
1.83878e-11
0.000155851
2.10428e-11
0.000155851
1.95247e-11
0.000155851
9.94879e-12
0.000155851
-1.75069e-12
0.000155851
-8.60205e-12
0.000155851
-1.05942e-11
0.000155851
-8.96491e-12
0.000155851
-3.9808e-12
0.000155851
-7.08497e-14
0.000155851
-2.47735e-12
0.000155851
-1.04577e-11
0.000155851
-2.00659e-11
0.000155851
-2.79592e-11
0.000155851
-3.11646e-11
0.000155851
-3.01201e-11
0.000155851
-2.79588e-11
0.000155851
-2.50597e-11
0.000155851
-2.00138e-11
0.000155851
-1.47977e-11
0.000155851
-9.7585e-12
0.000155851
-4.18158e-12
0.000155851
1.10115e-12
0.000155851
5.1428e-12
0.000155851
8.88784e-12
0.000155851
1.2115e-11
0.000155851
1.25978e-11
0.000155851
1.03585e-11
0.000155851
8.58053e-12
0.000155851
9.94872e-12
0.000155851
1.38577e-11
0.000155851
1.71731e-11
0.000155851
1.72478e-11
0.000155851
1.38116e-11
0.000155851
8.95765e-12
0.000155851
4.96725e-12
0.000155851
1.82906e-12
0.000155851
-2.64521e-12
0.000155851
-1.00075e-11
0.000155851
-1.77538e-11
0.000155851
-2.08923e-11
0.000155851
-1.85239e-11
0.000155851
-1.50961e-11
0.000155851
-1.53359e-11
0.000155851
-1.92204e-11
0.000155851
-2.41252e-11
0.000155851
-2.6632e-11
0.000155851
-2.67446e-11
0.000155851
-2.6561e-11
0.000155851
-2.85754e-11
0.000155851
-3.33406e-11
0.000155851
-3.81334e-11
0.000155851
-3.88378e-11
0.000155851
-3.53051e-11
0.000155851
-3.2202e-11
0.000155851
-3.27185e-11
0.000155851
-3.49025e-11
0.000155851
-3.4444e-11
0.000155851
-2.91869e-11
0.000155851
-2.10302e-11
0.000155851
-1.49632e-11
0.000155851
-1.36074e-11
0.000155851
-1.50468e-11
0.000155851
-1.47135e-11
0.000155851
-1.11161e-11
0.000155851
-6.97473e-12
0.000155851
-4.55261e-12
0.000155851
-3.38244e-12
0.000155851
-4.47957e-13
0.000155851
5.17196e-12
0.000155851
1.19148e-11
0.000155851
1.71182e-11
0.000155851
1.89408e-11
0.000155851
1.69585e-11
0.000155851
1.41172e-11
0.000155851
1.37663e-11
0.000155851
1.67426e-11
0.000155851
1.82118e-11
0.000155851
1.47141e-11
0.000155851
8.05327e-12
0.000155851
2.45294e-12
0.000155851
-9.77325e-13
0.000155851
-4.53602e-12
0.000155851
-9.98184e-12
0.000155851
-1.56482e-11
0.000155851
-2.00385e-11
0.000155851
-2.05613e-11
0.000155851
-1.67096e-11
0.000155851
-1.23672e-11
0.000155851
-1.16324e-11
0.000155851
-1.3554e-11
0.000155851
-1.44893e-11
0.000155851
-1.37917e-11
0.000155851
-1.18003e-11
0.000155851
-7.57758e-12
0.000155851
-2.38288e-12
0.000155851
1.27262e-12
0.000155851
4.04455e-12
0.000155851
8.21416e-12
0.000155851
1.40061e-11
0.000155851
1.74016e-11
0.000155851
1.83777e-11
0.000155851
2.24972e-11
0.000155851
3.12534e-11
0.000155851
3.91074e-11
0.000155851
4.22725e-11
0.000155851
4.29984e-11
0.000155851
4.33851e-11
0.000155851
4.28108e-11
0.000155851
4.14229e-11
0.000155851
4.10963e-11
0.000155851
4.14983e-11
0.000155851
3.80898e-11
0.000155851
2.90745e-11
0.000155851
1.93193e-11
0.000155851
1.22831e-11
0.000155851
7.10022e-12
0.000155851
-9.40312e-13
0.000155851
-1.04232e-11
0.000155851
-1.69731e-11
0.000155851
-2.15862e-11
0.000155851
-2.61203e-11
0.000155851
-3.19614e-11
0.000155851
-4.1446e-11
0.000155851
-4.85888e-11
0.000155851
-6.62437e-11
-7.72658e-11
0.000199089
4.31094e-11
0.000199089
7.80803e-11
0.000199089
1.21998e-10
0.000199089
1.66889e-10
0.000199089
2.08926e-10
0.000199089
2.3578e-10
0.000199089
2.70178e-10
0.000199089
3.01558e-10
0.000199089
3.30598e-10
0.000199089
3.35156e-10
0.000199089
3.23364e-10
0.000199089
3.0827e-10
0.000199088
2.91457e-10
0.000199088
2.71923e-10
0.000199088
2.46183e-10
0.000199088
2.21011e-10
0.000199088
2.03847e-10
0.000199088
1.87062e-10
0.000199088
1.65805e-10
0.000199088
1.43118e-10
0.000199088
1.21457e-10
0.000199088
1.04404e-10
0.000199088
9.21382e-11
0.000199088
7.85807e-11
0.000199087
6.16856e-11
0.000199087
4.61705e-11
0.000199087
3.39957e-11
0.000199087
2.34642e-11
0.000199087
1.46402e-11
0.000199087
7.87064e-12
0.000199087
2.64733e-12
0.000199087
-1.73355e-12
0.000199087
-5.93015e-12
0.000199087
-1.40735e-11
0.000199087
-2.58768e-11
0.000199087
-3.60419e-11
0.000199087
-4.00661e-11
0.000199087
-3.74592e-11
0.000199087
-3.17941e-11
0.000199087
-2.79981e-11
0.000199087
-2.77424e-11
0.000199087
-2.75571e-11
0.000199087
-2.34648e-11
0.000199087
-1.55618e-11
0.000199087
-5.67923e-12
0.000199087
3.40282e-12
0.000199087
9.20594e-12
0.000199087
1.14897e-11
0.000199087
1.22055e-11
0.000199087
1.27305e-11
0.000199087
1.27151e-11
0.000199087
1.27558e-11
0.000199087
1.46554e-11
0.000199087
1.90042e-11
0.000199087
2.39517e-11
0.000199087
2.6295e-11
0.000199087
2.35181e-11
0.000199087
1.62072e-11
0.000199087
7.14854e-12
0.000199087
-4.76156e-13
0.000199087
-4.8329e-12
0.000199087
-6.76291e-12
0.000199087
-8.66551e-12
0.000199087
-1.0778e-11
0.000199087
-1.13072e-11
0.000199087
-1.00948e-11
0.000199087
-9.57448e-12
0.000199087
-1.21733e-11
0.000199087
-1.72873e-11
0.000199087
-2.33187e-11
0.000199087
-2.81298e-11
0.000199087
-3.2061e-11
0.000199087
-3.57778e-11
0.000199087
-4.06198e-11
0.000199087
-4.77015e-11
0.000199087
-5.43132e-11
0.000199087
-5.66308e-11
0.000199087
-5.41599e-11
0.000199087
-4.99699e-11
0.000199087
-4.70874e-11
0.000199087
-4.55284e-11
0.000199087
-4.35531e-11
0.000199087
-3.99897e-11
0.000199087
-3.54921e-11
0.000199087
-3.18649e-11
0.000199087
-2.96402e-11
0.000199087
-2.68411e-11
0.000199087
-2.13487e-11
0.000199087
-1.33934e-11
0.000199087
-6.58856e-12
0.000199087
-1.78103e-12
0.000199087
3.53479e-13
0.000199087
2.82989e-12
0.000199087
7.45084e-12
0.000199087
1.45263e-11
0.000199087
2.20288e-11
0.000199087
2.69384e-11
0.000199087
2.75677e-11
0.000199087
2.56875e-11
0.000199087
2.48502e-11
0.000199087
2.57416e-11
0.000199087
2.52691e-11
0.000199087
2.07044e-11
0.000199087
1.31402e-11
0.000199087
6.13325e-12
0.000199087
1.17077e-12
0.000199087
-3.22285e-12
0.000199087
-8.11488e-12
0.000199087
-1.3312e-11
0.000199087
-1.82523e-11
0.000199087
-2.16087e-11
0.000199087
-2.29257e-11
0.000199087
-2.4581e-11
0.000199087
-2.76802e-11
0.000199087
-3.04394e-11
0.000199087
-3.09546e-11
0.000199087
-2.92862e-11
0.000199087
-2.58266e-11
0.000199087
-2.03623e-11
0.000199087
-1.50553e-11
0.000199087
-1.15335e-11
0.000199087
-7.9447e-12
0.000199087
-1.65219e-12
0.000199087
7.18176e-12
0.000199087
1.53505e-11
0.000199087
2.24153e-11
0.000199087
3.05891e-11
0.000199087
3.91238e-11
0.000199087
4.50672e-11
0.000199087
4.81446e-11
0.000199087
4.99045e-11
0.000199087
5.02172e-11
0.000199087
4.7856e-11
0.000199087
4.38381e-11
0.000199087
4.12008e-11
0.000199087
3.86762e-11
0.000199087
3.22549e-11
0.000199087
2.21995e-11
0.000199087
1.09511e-11
0.000199087
-1.62359e-12
0.000199087
-1.64133e-11
0.000199087
-2.91334e-11
0.000199087
-3.57096e-11
0.000199087
-4.00909e-11
0.000199087
-4.45649e-11
0.000199087
-5.59596e-11
0.000199087
-6.78299e-11
0.000199087
-8.01947e-11
0.000199087
-9.35071e-11
-9.73018e-11
0.000232307
2.86241e-11
0.000232307
6.23543e-11
0.000232308
1.05748e-10
0.000232308
1.46672e-10
0.000232308
2.09121e-10
0.000232308
2.52761e-10
0.000232308
2.96806e-10
0.000232307
3.35856e-10
0.000232307
3.75841e-10
0.000232307
4.00615e-10
0.000232307
4.15648e-10
0.000232307
4.16144e-10
0.000232307
4.04561e-10
0.000232307
3.90351e-10
0.000232307
3.71087e-10
0.000232307
3.45489e-10
0.000232307
3.19111e-10
0.000232307
2.90866e-10
0.000232307
2.60988e-10
0.000232306
2.35346e-10
0.000232306
2.1551e-10
0.000232306
1.97788e-10
0.000232306
1.77281e-10
0.000232306
1.5042e-10
0.000232306
1.20767e-10
0.000232306
9.72744e-11
0.000232306
8.24187e-11
0.000232306
7.04969e-11
0.000232306
5.70872e-11
0.000232306
4.21881e-11
0.000232306
2.57451e-11
0.000232306
8.56088e-12
0.000232306
-6.83031e-12
0.000232306
-1.87128e-11
0.000232306
-2.59659e-11
0.000232306
-2.70337e-11
0.000232306
-2.20113e-11
0.000232306
-1.43423e-11
0.000232306
-8.003e-12
0.000232306
-6.08487e-12
0.000232306
-8.5491e-12
0.000232306
-1.18245e-11
0.000232306
-1.22051e-11
0.000232306
-8.59079e-12
0.000232306
-2.60728e-12
0.000232306
3.56145e-12
0.000232306
8.19591e-12
0.000232306
1.07892e-11
0.000232306
1.27699e-11
0.000232306
1.59557e-11
0.000232306
2.08463e-11
0.000232306
2.58463e-11
0.000232306
2.94352e-11
0.000232306
3.10769e-11
0.000232306
3.11272e-11
0.000232306
2.98656e-11
0.000232305
2.69703e-11
0.000232305
2.19199e-11
0.000232306
1.53652e-11
0.000232306
8.97289e-12
0.000232306
4.89002e-12
0.000232305
4.10278e-12
0.000232305
4.6101e-12
0.000232305
3.68384e-12
0.000232305
8.75375e-13
0.000232305
-2.45031e-12
0.000232305
-4.98637e-12
0.000232305
-8.08796e-12
0.000232305
-1.34124e-11
0.000232305
-2.09913e-11
0.000232305
-3.00809e-11
0.000232305
-3.86212e-11
0.000232305
-4.54724e-11
0.000232305
-5.05168e-11
0.000232305
-5.54451e-11
0.000232305
-6.18486e-11
0.000232306
-6.85095e-11
0.000232306
-7.18072e-11
0.000232306
-7.02465e-11
0.000232306
-6.582e-11
0.000232306
-6.18156e-11
0.000232306
-5.97337e-11
0.000232306
-5.86688e-11
0.000232306
-5.68545e-11
0.000232306
-5.30921e-11
0.000232306
-4.74902e-11
0.000232306
-4.07654e-11
0.000232306
-3.29023e-11
0.000232306
-2.36736e-11
0.000232306
-1.39847e-11
0.000232306
-4.21297e-12
0.000232306
3.29793e-12
0.000232306
8.93577e-12
0.000232306
1.37064e-11
0.000232306
1.84886e-11
0.000232306
2.42887e-11
0.000232306
3.0647e-11
0.000232306
3.55004e-11
0.000232306
3.74598e-11
0.000232306
3.7348e-11
0.000232306
3.70651e-11
0.000232306
3.67208e-11
0.000232306
3.38445e-11
0.000232306
2.68329e-11
0.000232306
1.79327e-11
0.000232306
1.06665e-11
0.000232306
5.28294e-12
0.000232306
-3.03529e-13
0.000232305
-7.29006e-12
0.000232305
-1.59038e-11
0.000232306
-2.55121e-11
0.000232306
-3.38995e-11
0.000232306
-3.97563e-11
0.000232306
-4.3297e-11
0.000232306
-4.43815e-11
0.000232306
-4.31795e-11
0.000232306
-4.05925e-11
0.000232306
-3.70695e-11
0.000232306
-3.23637e-11
0.000232306
-2.68049e-11
0.000232306
-2.07666e-11
0.000232306
-1.52578e-11
0.000232306
-8.09995e-12
0.000232306
2.58238e-12
0.000232306
1.49764e-11
0.000232306
2.54627e-11
0.000232306
3.35325e-11
0.000232306
4.09126e-11
0.000232306
4.71311e-11
0.000232306
5.10344e-11
0.000232306
5.29976e-11
0.000232306
5.4912e-11
0.000232306
5.70795e-11
0.000232306
5.72718e-11
0.000232306
5.41789e-11
0.000232306
4.82641e-11
0.000232306
3.91274e-11
0.000232306
2.61455e-11
0.000232306
9.27442e-12
0.000232306
-7.87815e-12
0.000232306
-2.01984e-11
0.000232306
-2.85393e-11
0.000232306
-3.78079e-11
0.000232306
-4.81376e-11
0.000232306
-6.26944e-11
0.000232306
-7.58147e-11
0.000232306
-8.56324e-11
0.000232306
-9.51554e-11
0.000232306
-1.03507e-10
-1.08045e-10
0.000255808
2.05385e-11
0.000255808
4.75197e-11
0.000255808
7.17659e-11
0.000255808
9.90111e-11
0.000255808
1.52765e-10
0.000255808
2.12876e-10
0.000255808
2.6637e-10
0.000255808
3.23635e-10
0.000255808
3.76623e-10
0.000255808
4.19605e-10
0.000255808
4.4447e-10
0.000255808
4.52812e-10
0.000255808
4.57638e-10
0.000255808
4.61128e-10
0.000255808
4.56516e-10
0.000255808
4.40103e-10
0.000255808
4.15439e-10
0.000255808
3.87974e-10
0.000255808
3.60532e-10
0.000255808
3.35186e-10
0.000255808
3.11922e-10
0.000255808
2.87296e-10
0.000255807
2.59382e-10
0.000255807
2.30087e-10
0.000255807
2.01184e-10
0.000255807
1.73015e-10
0.000255807
1.45497e-10
0.000255807
1.18345e-10
0.000255807
9.2636e-11
0.000255807
7.05742e-11
0.000255807
5.25346e-11
0.000255807
3.67507e-11
0.000255807
2.32999e-11
0.000255807
1.39526e-11
0.000255807
9.08803e-12
0.000255807
7.79815e-12
0.000255807
9.17676e-12
0.000255807
1.20663e-11
0.000255807
1.42913e-11
0.000255807
1.35194e-11
0.000255807
9.38927e-12
0.000255807
3.51637e-12
0.000255807
-1.45071e-12
0.000255807
-3.61782e-12
0.000255807
-2.43245e-12
0.000255807
1.50484e-12
0.000255807
7.19111e-12
0.000255807
1.32572e-11
0.000255807
1.85652e-11
0.000255807
2.33543e-11
0.000255807
2.85103e-11
0.000255807
3.3456e-11
0.000255807
3.60092e-11
0.000255807
3.47172e-11
0.000255807
3.02697e-11
0.000255807
2.49067e-11
0.000255807
2.06627e-11
0.000255807
1.8372e-11
0.000255807
1.7889e-11
0.000255807
1.81792e-11
0.000255807
1.80019e-11
0.000255807
1.72463e-11
0.000255807
1.59214e-11
0.000255807
1.2881e-11
0.000255807
7.51171e-12
0.000255807
1.19394e-12
0.000255807
-4.10508e-12
0.000255807
-8.93652e-12
0.000255807
-1.37899e-11
0.000255807
-2.03606e-11
0.000255807
-2.90464e-11
0.000255807
-3.88459e-11
0.000255807
-4.87941e-11
0.000255807
-5.75612e-11
0.000255807
-6.42746e-11
0.000255807
-6.96166e-11
0.000255807
-7.47795e-11
0.000255807
-7.92138e-11
0.000255807
-8.13238e-11
0.000255807
-8.12399e-11
0.000255807
-8.08235e-11
0.000255807
-8.10335e-11
0.000255807
-8.04947e-11
0.000255807
-7.71036e-11
0.000255807
-7.04191e-11
0.000255807
-6.17372e-11
0.000255807
-5.30216e-11
0.000255807
-4.52228e-11
0.000255807
-3.74376e-11
0.000255807
-2.7794e-11
0.000255807
-1.60651e-11
0.000255807
-4.06483e-12
0.000255807
6.87384e-12
0.000255807
1.59405e-11
0.000255807
2.33859e-11
0.000255807
2.94184e-11
0.000255807
3.48389e-11
0.000255807
4.00146e-11
0.000255807
4.41944e-11
0.000255807
4.62747e-11
0.000255807
4.6078e-11
0.000255807
4.47117e-11
0.000255807
4.23125e-11
0.000255807
3.69994e-11
0.000255807
2.81267e-11
0.000255807
1.84208e-11
0.000255807
9.94187e-12
0.000255807
1.45111e-12
0.000255807
-7.74385e-12
0.000255807
-1.64735e-11
0.000255807
-2.55272e-11
0.000255807
-3.3512e-11
0.000255807
-3.96933e-11
0.000255807
-4.32735e-11
0.000255807
-4.43268e-11
0.000255807
-4.40126e-11
0.000255807
-4.36038e-11
0.000255807
-4.27081e-11
0.000255807
-3.99239e-11
0.000255807
-3.44394e-11
0.000255807
-2.70885e-11
0.000255807
-1.84651e-11
0.000255807
-1.07309e-11
0.000255807
-2.89157e-12
0.000255807
7.43434e-12
0.000255807
1.91658e-11
0.000255807
3.03143e-11
0.000255807
4.05953e-11
0.000255807
5.05021e-11
0.000255807
5.8677e-11
0.000255807
6.33033e-11
0.000255807
6.50929e-11
0.000255807
6.68807e-11
0.000255807
6.8447e-11
0.000255807
6.49838e-11
0.000255807
5.48837e-11
0.000255807
4.2164e-11
0.000255807
2.91119e-11
0.000255807
1.22881e-11
0.000255807
-7.8272e-12
0.000255807
-2.28721e-11
0.000255807
-3.07051e-11
0.000255807
-4.23328e-11
0.000255807
-5.71199e-11
0.000255807
-7.45882e-11
0.000255807
-8.47196e-11
0.000255807
-9.19828e-11
0.000255807
-9.82011e-11
0.000255807
-1.0418e-10
-1.10295e-10
0.000269816
-1.84102e-11
0.000269816
-5.05601e-12
0.000269816
1.64482e-11
0.000269816
5.75489e-11
0.000269816
8.65063e-11
0.000269816
1.30801e-10
0.000269816
1.82858e-10
0.000269816
2.5269e-10
0.000269816
3.02998e-10
0.000269816
3.48998e-10
0.000269817
3.9322e-10
0.000269817
4.30638e-10
0.000269817
4.61751e-10
0.000269816
4.86195e-10
0.000269816
5.00338e-10
0.000269816
4.9948e-10
0.000269816
4.86142e-10
0.000269816
4.68263e-10
0.000269816
4.47049e-10
0.000269816
4.19415e-10
0.000269816
3.86289e-10
0.000269816
3.50579e-10
0.000269816
3.15551e-10
0.000269816
2.85166e-10
0.000269816
2.59247e-10
0.000269816
2.32647e-10
0.000269816
2.02047e-10
0.000269816
1.6921e-10
0.000269816
1.37798e-10
0.000269816
1.10358e-10
0.000269816
8.72706e-11
0.000269815
6.75424e-11
0.000269815
5.15118e-11
0.000269815
4.15672e-11
0.000269815
3.87954e-11
0.000269815
4.03263e-11
0.000269815
4.09347e-11
0.000269815
3.74666e-11
0.000269815
3.06684e-11
0.000269815
2.26802e-11
0.000269815
1.52107e-11
0.000269815
9.82791e-12
0.000269815
7.17262e-12
0.000269815
7.40076e-12
0.000269815
1.07196e-11
0.000269815
1.64609e-11
0.000269815
2.29836e-11
0.000269815
2.90046e-11
0.000269815
3.3526e-11
0.000269815
3.55022e-11
0.000269815
3.5515e-11
0.000269815
3.51981e-11
0.000269815
3.46886e-11
0.000269815
3.30925e-11
0.000269815
3.03624e-11
0.000269815
2.78313e-11
0.000269815
2.68487e-11
0.000269815
2.74406e-11
0.000269815
2.87156e-11
0.000269815
2.95689e-11
0.000269815
2.86494e-11
0.000269815
2.53913e-11
0.000269815
2.06366e-11
0.000269815
1.5507e-11
0.000269815
9.81126e-12
0.000269815
3.07956e-12
0.000269815
-3.82927e-12
0.000269815
-1.01851e-11
0.000269815
-1.63396e-11
0.000269815
-2.36775e-11
0.000269815
-3.25269e-11
0.000269815
-4.20719e-11
0.000269815
-5.21273e-11
0.000269815
-6.27727e-11
0.000269815
-7.27615e-11
0.000269815
-8.06986e-11
0.000269815
-8.66067e-11
0.000269815
-9.09032e-11
0.000269815
-9.29008e-11
0.000269815
-9.22121e-11
0.000269815
-9.04292e-11
0.000269815
-8.95302e-11
0.000269815
-8.92357e-11
0.000269815
-8.74878e-11
0.000269815
-8.26417e-11
0.000269815
-7.48771e-11
0.000269815
-6.44905e-11
0.000269815
-5.25982e-11
0.000269815
-4.0188e-11
0.000269815
-2.715e-11
0.000269815
-1.29183e-11
0.000269815
1.13672e-12
0.000269815
1.34581e-11
0.000269815
2.3277e-11
0.000269815
3.11639e-11
0.000269815
3.74687e-11
0.000269815
4.26626e-11
0.000269815
4.77256e-11
0.000269815
5.30181e-11
0.000269815
5.6825e-11
0.000269815
5.65279e-11
0.000269815
5.19526e-11
0.000269815
4.60352e-11
0.000269815
4.04363e-11
0.000269815
3.35116e-11
0.000269815
2.45128e-11
0.000269815
1.5272e-11
0.000269815
6.72494e-12
0.000269815
-2.1932e-12
0.000269815
-1.09577e-11
0.000269815
-1.84379e-11
0.000269815
-2.39518e-11
0.000269815
-2.84013e-11
0.000269815
-3.26582e-11
0.000269815
-3.56319e-11
0.000269815
-3.79471e-11
0.000269815
-4.09191e-11
0.000269815
-4.33385e-11
0.000269815
-4.27997e-11
0.000269815
-3.93741e-11
0.000269815
-3.35832e-11
0.000269815
-2.54857e-11
0.000269815
-1.69596e-11
0.000269815
-8.70046e-12
0.000269815
1.85582e-12
0.000269815
1.6132e-11
0.000269815
3.06235e-11
0.000269815
4.1934e-11
0.000269815
5.13802e-11
0.000269815
6.10191e-11
0.000269815
6.88915e-11
0.000269815
7.24755e-11
0.000269815
7.28514e-11
0.000269815
7.05243e-11
0.000269815
6.30715e-11
0.000269815
5.04361e-11
0.000269815
3.79054e-11
0.000269815
2.90894e-11
0.000269815
2.04197e-11
0.000269815
5.62089e-12
0.000269815
-1.1435e-11
0.000269815
-2.74204e-11
0.000269815
-4.09124e-11
0.000269815
-5.65859e-11
0.000269815
-6.90234e-11
0.000269815
-7.73292e-11
0.000269815
-8.63213e-11
0.000269815
-9.42025e-11
0.000269815
-9.41404e-11
-9.37526e-11
0.00027447
-6.87072e-11
0.00027447
-5.44281e-11
0.00027447
-2.84786e-11
0.00027447
-2.8367e-12
0.00027447
2.58011e-11
0.00027447
6.90564e-11
0.00027447
1.1782e-10
0.00027447
1.71103e-10
0.00027447
2.18618e-10
0.00027447
2.75674e-10
0.00027447
3.42485e-10
0.00027447
4.04063e-10
0.000274471
4.5105e-10
0.000274471
4.82316e-10
0.000274471
4.98158e-10
0.000274471
5.0046e-10
0.000274471
4.93585e-10
0.000274471
4.81034e-10
0.00027447
4.63528e-10
0.00027447
4.40604e-10
0.00027447
4.13148e-10
0.00027447
3.82932e-10
0.00027447
3.5186e-10
0.00027447
3.21724e-10
0.00027447
2.9188e-10
0.00027447
2.5923e-10
0.00027447
2.23035e-10
0.00027447
1.87095e-10
0.00027447
1.55779e-10
0.00027447
1.30503e-10
0.00027447
1.09991e-10
0.00027447
9.26303e-11
0.00027447
7.79995e-11
0.00027447
6.68388e-11
0.00027447
6.0126e-11
0.00027447
5.70664e-11
0.00027447
5.39493e-11
0.00027447
4.72733e-11
0.00027447
3.76025e-11
0.00027447
2.88432e-11
0.00027447
2.37498e-11
0.00027447
2.24451e-11
0.00027447
2.32439e-11
0.00027447
2.41132e-11
0.00027447
2.45099e-11
0.00027447
2.48598e-11
0.00027447
2.49592e-11
0.00027447
2.47225e-11
0.00027447
2.49927e-11
0.00027447
2.58474e-11
0.00027447
2.66449e-11
0.00027447
2.72376e-11
0.00027447
2.75138e-11
0.00027447
2.66238e-11
0.00027447
2.44914e-11
0.00027447
2.27133e-11
0.00027447
2.32246e-11
0.00027447
2.6032e-11
0.00027447
2.89731e-11
0.00027447
2.99398e-11
0.00027447
2.83538e-11
0.00027447
2.48847e-11
0.00027447
2.11642e-11
0.00027447
1.85796e-11
0.00027447
1.56162e-11
0.00027447
1.10709e-11
0.00027447
2.98757e-12
0.00027447
-6.64878e-12
0.00027447
-1.57697e-11
0.00027447
-2.38944e-11
0.00027447
-3.22819e-11
0.00027447
-4.12197e-11
0.00027447
-5.02532e-11
0.00027447
-5.92969e-11
0.00027447
-6.80172e-11
0.00027447
-7.49241e-11
0.00027447
-7.9672e-11
0.00027447
-8.39463e-11
0.00027447
-8.86367e-11
0.00027447
-9.2118e-11
0.00027447
-9.28647e-11
0.00027447
-9.17954e-11
0.00027447
-9.03219e-11
0.00027447
-8.81654e-11
0.00027447
-8.38127e-11
0.00027447
-7.64765e-11
0.00027447
-6.6332e-11
0.00027447
-5.35315e-11
0.00027447
-3.97833e-11
0.00027447
-2.66788e-11
0.00027447
-1.41892e-11
0.00027447
-1.09511e-12
0.00027447
1.25308e-11
0.00027447
2.49805e-11
0.00027447
3.49366e-11
0.00027447
4.2841e-11
0.00027447
4.9115e-11
0.00027447
5.38732e-11
0.00027447
5.74991e-11
0.00027447
5.98413e-11
0.00027447
5.90956e-11
0.00027447
5.37335e-11
0.00027447
4.59724e-11
0.00027447
3.96784e-11
0.00027447
3.44461e-11
0.00027447
2.68162e-11
0.00027447
1.67968e-11
0.00027447
7.79575e-12
0.00027447
8.61417e-13
0.00027447
-5.86475e-12
0.00027447
-1.29686e-11
0.00027447
-2.00786e-11
0.00027447
-2.6983e-11
0.00027447
-3.46748e-11
0.00027447
-4.24209e-11
0.00027447
-4.81031e-11
0.00027447
-5.28346e-11
0.00027447
-5.65109e-11
0.00027447
-5.54493e-11
0.00027447
-4.89014e-11
0.00027447
-4.05754e-11
0.00027447
-3.21718e-11
0.00027447
-2.3119e-11
0.00027447
-1.39419e-11
0.00027447
-4.88215e-12
0.00027447
5.56253e-12
0.00027447
1.72762e-11
0.00027447
2.7954e-11
0.00027447
3.66542e-11
0.00027447
4.49056e-11
0.00027447
5.24685e-11
0.00027447
5.71543e-11
0.00027447
5.80279e-11
0.00027447
5.58187e-11
0.00027447
5.21714e-11
0.00027447
4.84981e-11
0.00027447
4.26544e-11
0.00027447
3.10966e-11
0.00027447
1.57348e-11
0.00027447
2.88461e-12
0.00027447
-1.27723e-11
0.00027447
-3.23302e-11
0.00027447
-5.13348e-11
0.00027447
-6.61504e-11
0.00027447
-7.39513e-11
0.00027447
-8.25957e-11
0.00027447
-8.91235e-11
0.00027447
-9.4393e-11
0.00027447
-9.27243e-11
-8.55813e-11
0.000269817
-8.66964e-11
0.000269817
-8.56513e-11
0.000269817
-6.14829e-11