/*--------------------------------*- C++ -*----------------------------------*\
| =========                 |                                                 |
| \\      /  F ield         | OpenFOAM: The Open Source CFD Toolbox           |
|  \\    /   O peration     | Version:  2406                                  |
|   \\  /    A nd           | Website:  www.openfoam.com                      |
|    \\/     M anipulation  |                                                 |
\*---------------------------------------------------------------------------*/
FoamFile
{
    version     2.0;
    format      ascii;
    arch        "LSB;label=32;scalar=64";
    class       volVectorField;
    location    "0.2";
    object      U;
}
// * * * * * * * * * * * * * * * * * * * * * * * * * * * * * * * * * * * * * //

dimensions      [0 1 -1 0 0 0 0];

internalField   nonuniform List<vector> 
2250
(
(0.567336 1.38827e-07 0)
(0.567335 1.04733e-07 0)
(0.567335 3.71938e-08 0)
(0.567335 9.88038e-09 0)
(0.567335 -4.41697e-09 0)
(0.567334 1.87031e-08 0)
(0.567334 -5.70795e-08 0)
(0.567334 -9.66117e-08 0)
(0.567334 -8.89833e-08 0)
(0.567334 -2.71887e-08 0)
(0.567334 2.51623e-08 0)
(0.567334 6.07552e-08 0)
(0.567334 3.51062e-08 0)
(0.567334 -3.55877e-08 0)
(0.567334 -5.33333e-08 0)
(0.567334 -7.86668e-08 0)
(0.567334 -1.45362e-07 0)
(0.567333 -1.17156e-07 0)
(0.567333 1.15147e-08 0)
(0.567333 7.7345e-08 0)
(0.567334 1.48498e-08 0)
(0.567334 -1.18854e-07 0)
(0.567334 -2.40172e-07 0)
(0.567334 -2.90121e-07 0)
(0.567334 -2.70215e-07 0)
(0.567334 -2.04382e-07 0)
(0.567334 -1.05642e-07 0)
(0.567334 -1.92625e-08 0)
(0.567334 -4.2931e-10 0)
(0.567334 -3.92642e-08 0)
(0.567334 -9.02882e-08 0)
(0.567334 -1.35802e-07 0)
(0.567334 -1.58661e-07 0)
(0.567334 -1.26398e-07 0)
(0.567334 -4.38224e-08 0)
(0.567334 3.76831e-08 0)
(0.567334 7.22776e-08 0)
(0.567334 4.59484e-08 0)
(0.567335 -1.6601e-08 0)
(0.567335 -7.24295e-08 0)
(0.567335 -9.93558e-08 0)
(0.567335 -1.02587e-07 0)
(0.567335 -8.21879e-08 0)
(0.567335 -3.55643e-08 0)
(0.567335 1.66548e-08 0)
(0.567334 4.67059e-08 0)
(0.567335 4.5904e-08 0)
(0.567335 1.6493e-08 0)
(0.567335 -2.58395e-08 0)
(0.567335 -5.06989e-08 0)
(0.567335 -4.21667e-08 0)
(0.567335 -1.57766e-08 0)
(0.567335 6.68831e-09 0)
(0.567335 2.04894e-08 0)
(0.567335 3.12103e-08 0)
(0.567335 3.94889e-08 0)
(0.567335 3.92745e-08 0)
(0.567335 2.53215e-08 0)
(0.567335 -4.85826e-09 0)
(0.567335 -4.54066e-08 0)
(0.567335 -7.83988e-08 0)
(0.567335 -8.52133e-08 0)
(0.567335 -6.86164e-08 0)
(0.567335 -5.45327e-08 0)
(0.567335 -6.21913e-08 0)
(0.567335 -8.25602e-08 0)
(0.567335 -9.30554e-08 0)
(0.567335 -9.27485e-08 0)
(0.567335 -9.73849e-08 0)
(0.567335 -1.08186e-07 0)
(0.567336 -1.06346e-07 0)
(0.567336 -7.64784e-08 0)
(0.567336 -1.93408e-08 0)
(0.567336 4.78838e-08 0)
(0.567336 9.97508e-08 0)
(0.567336 1.14272e-07 0)
(0.567336 9.31108e-08 0)
(0.567336 6.60832e-08 0)
(0.567336 6.03789e-08 0)
(0.567336 7.48904e-08 0)
(0.567336 8.94477e-08 0)
(0.567336 8.19568e-08 0)
(0.567336 5.19863e-08 0)
(0.567336 2.1125e-08 0)
(0.567336 1.26669e-08 0)
(0.567336 2.49216e-08 0)
(0.567336 3.49487e-08 0)
(0.567336 3.40476e-08 0)
(0.567336 3.61708e-08 0)
(0.567336 5.20807e-08 0)
(0.567336 6.2748e-08 0)
(0.567336 4.412e-08 0)
(0.567336 -1.17037e-09 0)
(0.567336 -4.29132e-08 0)
(0.567336 -5.73347e-08 0)
(0.567336 -4.5904e-08 0)
(0.567336 -2.01673e-08 0)
(0.567336 2.85286e-09 0)
(0.567335 6.95076e-10 0)
(0.567335 -3.16621e-08 0)
(0.567335 -6.88435e-08 0)
(0.567335 -8.05613e-08 0)
(0.567335 -6.61798e-08 0)
(0.567335 -4.95438e-08 0)
(0.567335 -4.52096e-08 0)
(0.567335 -4.16411e-08 0)
(0.567335 -2.65434e-08 0)
(0.567335 -6.14732e-09 0)
(0.567335 3.13367e-09 0)
(0.567335 -7.05549e-09 0)
(0.567335 -2.97178e-08 0)
(0.567335 -3.97508e-08 0)
(0.567335 -1.68032e-08 0)
(0.567335 2.70163e-08 0)
(0.567335 5.65435e-08 0)
(0.567335 6.19871e-08 0)
(0.567335 5.8642e-08 0)
(0.567335 4.98178e-08 0)
(0.567335 3.19212e-08 0)
(0.567335 2.20887e-08 0)
(0.567335 3.53007e-08 0)
(0.567335 5.4376e-08 0)
(0.567335 5.91369e-08 0)
(0.567335 5.91515e-08 0)
(0.567335 7.17338e-08 0)
(0.567335 8.0484e-08 0)
(0.567334 5.78597e-08 0)
(0.567334 2.20402e-08 0)
(0.567334 1.31772e-08 0)
(0.567334 3.31741e-08 0)
(0.567334 5.38002e-08 0)
(0.567334 6.4798e-08 0)
(0.567334 7.153e-08 0)
(0.567333 7.04077e-08 0)
(0.567333 5.21044e-08 0)
(0.567333 2.80097e-08 0)
(0.567333 1.91635e-08 0)
(0.567333 2.10522e-08 0)
(0.567333 1.57516e-08 0)
(0.567333 5.03668e-09 0)
(0.567333 -1.51381e-09 0)
(0.567333 -4.14113e-09 0)
(0.567333 -9.09893e-09 0)
(0.567333 -1.68656e-08 0)
(0.567333 -3.0792e-08 0)
(0.567333 -3.54425e-08 0)
(0.567333 -1.20201e-08 0)
(0.567333 1.65773e-09 0)
(0.567333 -1.95651e-08 0)
(0.567333 -8.12855e-08 0)
(1.53351 4.35216e-07 0)
(1.53351 5.80599e-07 0)
(1.53351 6.09233e-07 0)
(1.53351 5.96904e-07 0)
(1.53351 5.63109e-07 0)
(1.53351 8.32303e-07 0)
(1.53351 7.74853e-07 0)
(1.53351 6.66114e-07 0)
(1.53351 5.90499e-07 0)
(1.5335 5.61861e-07 0)
(1.5335 4.41851e-07 0)
(1.5335 3.90111e-07 0)
(1.5335 3.97655e-07 0)
(1.5335 2.82464e-07 0)
(1.5335 1.49087e-07 0)
(1.5335 8.94561e-09 0)
(1.5335 -1.68361e-07 0)
(1.5335 -1.78741e-07 0)
(1.5335 -9.27123e-09 0)
(1.5335 6.73434e-08 0)
(1.5335 -4.29155e-08 0)
(1.5335 -2.36653e-07 0)
(1.5335 -4.12506e-07 0)
(1.5335 -4.86811e-07 0)
(1.5335 -4.5128e-07 0)
(1.5335 -3.78813e-07 0)
(1.5335 -3.04383e-07 0)
(1.5335 -2.30167e-07 0)
(1.5335 -1.91858e-07 0)
(1.5335 -1.96474e-07 0)
(1.5335 -2.06478e-07 0)
(1.5335 -2.20945e-07 0)
(1.5335 -2.42833e-07 0)
(1.5335 -2.17913e-07 0)
(1.5335 -1.26507e-07 0)
(1.5335 -4.05564e-08 0)
(1.5335 -3.10725e-08 0)
(1.5335 -1.04329e-07 0)
(1.5335 -2.08683e-07 0)
(1.5335 -2.69629e-07 0)
(1.5335 -2.64345e-07 0)
(1.5335 -2.41784e-07 0)
(1.5335 -2.24423e-07 0)
(1.5335 -1.74912e-07 0)
(1.5335 -8.21105e-08 0)
(1.5335 1.72705e-08 0)
(1.5335 8.126e-08 0)
(1.5335 7.62042e-08 0)
(1.5335 -2.27289e-09 0)
(1.5335 -9.68299e-08 0)
(1.5335 -1.2944e-07 0)
(1.5335 -7.73506e-08 0)
(1.5335 1.49117e-08 0)
(1.5335 9.34069e-08 0)
(1.5335 1.30925e-07 0)
(1.5335 1.25259e-07 0)
(1.5335 9.24246e-08 0)
(1.5335 4.7461e-08 0)
(1.5335 -1.40829e-08 0)
(1.5335 -1.01738e-07 0)
(1.5335 -1.98766e-07 0)
(1.5335 -2.57762e-07 0)
(1.5335 -2.46422e-07 0)
(1.5335 -1.93014e-07 0)
(1.5335 -1.65406e-07 0)
(1.5335 -1.94242e-07 0)
(1.5335 -2.41916e-07 0)
(1.5335 -2.64913e-07 0)
(1.5335 -2.6461e-07 0)
(1.5335 -2.5853e-07 0)
(1.5335 -2.51322e-07 0)
(1.5335 -2.28405e-07 0)
(1.5335 -1.71078e-07 0)
(1.5335 -7.45366e-08 0)
(1.5335 3.35872e-08 0)
(1.5335 9.88699e-08 0)
(1.5335 8.44939e-08 0)
(1.5335 1.55498e-08 0)
(1.5335 -4.3334e-08 0)
(1.5335 -5.06306e-08 0)
(1.5335 -1.56024e-08 0)
(1.5335 1.82513e-08 0)
(1.5335 1.6832e-08 0)
(1.5335 -7.90037e-09 0)
(1.5335 -6.57353e-09 0)
(1.5335 4.14921e-08 0)
(1.5335 9.02793e-08 0)
(1.5335 8.47681e-08 0)
(1.5335 3.34805e-08 0)
(1.5335 -9.04975e-09 0)
(1.5335 -1.18723e-08 0)
(1.5335 3.20398e-09 0)
(1.5335 -8.37254e-11 0)
(1.5335 -2.28411e-08 0)
(1.5335 -4.16825e-08 0)
(1.5335 -4.20219e-08 0)
(1.5335 -1.86281e-08 0)
(1.5335 1.96596e-08 0)
(1.5335 3.49305e-08 0)
(1.5335 -7.74962e-09 0)
(1.5335 -8.67984e-08 0)
(1.5335 -1.39002e-07 0)
(1.5335 -1.35705e-07 0)
(1.5335 -1.11074e-07 0)
(1.5335 -1.10913e-07 0)
(1.5335 -1.38594e-07 0)
(1.5335 -1.59689e-07 0)
(1.5335 -1.4808e-07 0)
(1.5335 -1.12407e-07 0)
(1.5335 -8.2049e-08 0)
(1.5335 -8.45542e-08 0)
(1.5335 -1.09324e-07 0)
(1.5335 -1.00849e-07 0)
(1.5335 -3.5948e-08 0)
(1.5335 3.11693e-08 0)
(1.5335 5.45939e-08 0)
(1.5335 5.66773e-08 0)
(1.5335 5.32345e-08 0)
(1.5335 3.32934e-08 0)
(1.5335 2.72928e-08 0)
(1.5335 7.56824e-08 0)
(1.5335 1.46761e-07 0)
(1.5335 1.74977e-07 0)
(1.5335 1.63468e-07 0)
(1.5335 1.77783e-07 0)
(1.5335 2.26426e-07 0)
(1.5335 2.4002e-07 0)
(1.5335 2.00141e-07 0)
(1.5335 1.68644e-07 0)
(1.5335 1.77611e-07 0)
(1.5335 2.03141e-07 0)
(1.5335 2.32692e-07 0)
(1.5335 2.65173e-07 0)
(1.5335 2.84916e-07 0)
(1.5335 2.66261e-07 0)
(1.5335 2.06808e-07 0)
(1.5335 1.37046e-07 0)
(1.5335 7.74681e-08 0)
(1.5335 2.87116e-08 0)
(1.5335 -6.73211e-09 0)
(1.5335 -3.55428e-08 0)
(1.5335 -5.8589e-08 0)
(1.5335 -6.39589e-08 0)
(1.5335 -6.03606e-08 0)
(1.5335 -8.8096e-08 0)
(1.5335 -1.30165e-07 0)
(1.5335 -1.56894e-07 0)
(1.5335 -1.82367e-07 0)
(1.5335 -3.05021e-07 0)
(1.5335 -4.34777e-07 0)
(2.33779 6.41867e-07 0)
(2.33779 1.06491e-06 0)
(2.33779 1.41308e-06 0)
(2.33779 1.7163e-06 0)
(2.33779 1.83577e-06 0)
(2.33779 2.23632e-06 0)
(2.33779 2.52485e-06 0)
(2.33779 2.51079e-06 0)
(2.33778 2.32448e-06 0)
(2.33778 2.14844e-06 0)
(2.33778 1.89695e-06 0)
(2.33778 1.66873e-06 0)
(2.33778 1.55578e-06 0)
(2.33778 1.34365e-06 0)
(2.33777 9.96505e-07 0)
(2.33777 7.45899e-07 0)
(2.33777 6.26219e-07 0)
(2.33777 5.74541e-07 0)
(2.33777 5.44048e-07 0)
(2.33777 4.33999e-07 0)
(2.33777 2.25821e-07 0)
(2.33777 2.10173e-08 0)
(2.33777 -9.91771e-08 0)
(2.33777 -1.04266e-07 0)
(2.33777 -3.52485e-08 0)
(2.33777 -2.03043e-08 0)
(2.33777 -1.21893e-07 0)
(2.33777 -2.48036e-07 0)
(2.33776 -3.04167e-07 0)
(2.33776 -2.91472e-07 0)
(2.33776 -2.29603e-07 0)
(2.33776 -1.42446e-07 0)
(2.33776 -8.90585e-08 0)
(2.33776 -9.58803e-08 0)
(2.33776 -1.39589e-07 0)
(2.33776 -2.13016e-07 0)
(2.33776 -3.11455e-07 0)
(2.33776 -3.96557e-07 0)
(2.33776 -4.37137e-07 0)
(2.33776 -4.23799e-07 0)
(2.33776 -3.57387e-07 0)
(2.33776 -2.73094e-07 0)
(2.33776 -2.14864e-07 0)
(2.33776 -1.68665e-07 0)
(2.33776 -9.89031e-08 0)
(2.33776 -6.35325e-09 0)
(2.33777 8.17803e-08 0)
(2.33777 1.38951e-07 0)
(2.33776 1.35768e-07 0)
(2.33776 7.03265e-08 0)
(2.33776 -4.15658e-10 0)
(2.33776 -5.06192e-09 0)
(2.33776 6.52901e-08 0)
(2.33776 1.57384e-07 0)
(2.33776 2.08949e-07 0)
(2.33776 1.9318e-07 0)
(2.33776 1.33497e-07 0)
(2.33776 7.29066e-08 0)
(2.33776 2.9333e-08 0)
(2.33776 -2.08795e-08 0)
(2.33776 -1.09365e-07 0)
(2.33776 -2.24729e-07 0)
(2.33776 -3.02887e-07 0)
(2.33776 -2.95281e-07 0)
(2.33776 -2.37916e-07 0)
(2.33776 -2.14607e-07 0)
(2.33776 -2.61297e-07 0)
(2.33776 -3.37108e-07 0)
(2.33776 -3.84437e-07 0)
(2.33776 -3.83718e-07 0)
(2.33776 -3.6046e-07 0)
(2.33776 -3.47835e-07 0)
(2.33776 -3.60069e-07 0)
(2.33776 -3.77176e-07 0)
(2.33776 -3.64905e-07 0)
(2.33776 -3.13998e-07 0)
(2.33776 -2.65317e-07 0)
(2.33777 -2.69995e-07 0)
(2.33777 -3.22716e-07 0)
(2.33777 -3.64219e-07 0)
(2.33777 -3.4333e-07 0)
(2.33777 -2.60019e-07 0)
(2.33777 -1.65802e-07 0)
(2.33777 -1.15822e-07 0)
(2.33777 -1.10955e-07 0)
(2.33777 -1.00197e-07 0)
(2.33777 -5.65111e-08 0)
(2.33777 -1.88067e-08 0)
(2.33777 -3.25075e-08 0)
(2.33777 -8.28315e-08 0)
(2.33777 -1.08658e-07 0)
(2.33777 -6.8152e-08 0)
(2.33777 1.87247e-08 0)
(2.33777 1.02081e-07 0)
(2.33777 1.47055e-07 0)
(2.33777 1.46893e-07 0)
(2.33777 1.2066e-07 0)
(2.33777 1.07387e-07 0)
(2.33777 1.27948e-07 0)
(2.33777 1.47986e-07 0)
(2.33777 1.19439e-07 0)
(2.33777 4.79513e-08 0)
(2.33777 -1.71872e-08 0)
(2.33777 -4.75536e-08 0)
(2.33777 -6.58313e-08 0)
(2.33776 -1.12429e-07 0)
(2.33776 -1.87882e-07 0)
(2.33776 -2.54771e-07 0)
(2.33776 -2.74403e-07 0)
(2.33776 -2.35577e-07 0)
(2.33776 -1.70569e-07 0)
(2.33776 -1.38691e-07 0)
(2.33776 -1.48864e-07 0)
(2.33777 -1.51806e-07 0)
(2.33777 -1.23379e-07 0)
(2.33777 -9.37221e-08 0)
(2.33777 -6.88419e-08 0)
(2.33777 -2.9805e-08 0)
(2.33777 1.06963e-08 0)
(2.33777 4.32405e-08 0)
(2.33777 1.00009e-07 0)
(2.33777 1.94672e-07 0)
(2.33777 2.72247e-07 0)
(2.33777 2.82762e-07 0)
(2.33777 2.73927e-07 0)
(2.33777 3.28202e-07 0)
(2.33777 4.28269e-07 0)
(2.33777 4.88839e-07 0)
(2.33777 4.93878e-07 0)
(2.33777 4.87024e-07 0)
(2.33777 4.87871e-07 0)
(2.33777 4.917e-07 0)
(2.33776 5.00835e-07 0)
(2.33776 5.1822e-07 0)
(2.33776 5.1962e-07 0)
(2.33776 4.58546e-07 0)
(2.33776 3.34492e-07 0)
(2.33776 2.04724e-07 0)
(2.33776 1.14774e-07 0)
(2.33776 5.02627e-08 0)
(2.33776 -3.79079e-08 0)
(2.33776 -1.33393e-07 0)
(2.33776 -1.8335e-07 0)
(2.33776 -2.07431e-07 0)
(2.33776 -2.49278e-07 0)
(2.33776 -3.14993e-07 0)
(2.33776 -4.27495e-07 0)
(2.33776 -5.42234e-07 0)
(2.33777 -7.75609e-07 0)
(2.33777 -9.43e-07 0)
(2.98634 6.67311e-07 0)
(2.98634 1.15137e-06 0)
(2.98634 1.81241e-06 0)
(2.98634 2.40136e-06 0)
(2.98634 2.87971e-06 0)
(2.98634 3.32795e-06 0)
(2.98634 3.85554e-06 0)
(2.98634 4.14305e-06 0)
(2.98633 4.24204e-06 0)
(2.98633 4.16441e-06 0)
(2.98633 4.00425e-06 0)
(2.98633 3.77175e-06 0)
(2.98633 3.4584e-06 0)
(2.98633 3.08177e-06 0)
(2.98632 2.63965e-06 0)
(2.98632 2.30218e-06 0)
(2.98632 2.14407e-06 0)
(2.98632 2.00939e-06 0)
(2.98632 1.79376e-06 0)
(2.98632 1.50377e-06 0)
(2.98632 1.18362e-06 0)
(2.98631 9.23231e-07 0)
(2.98631 7.63977e-07 0)
(2.98631 6.54838e-07 0)
(2.98631 5.46147e-07 0)
(2.98631 4.16039e-07 0)
(2.98631 2.54393e-07 0)
(2.98631 9.2353e-08 0)
(2.98631 -2.10843e-08 0)
(2.98631 -8.1963e-08 0)
(2.98631 -1.02462e-07 0)
(2.98631 -8.67662e-08 0)
(2.98631 -8.05848e-08 0)
(2.98631 -1.49411e-07 0)
(2.98631 -2.91125e-07 0)
(2.98631 -4.42815e-07 0)
(2.98631 -5.38268e-07 0)
(2.98631 -5.45014e-07 0)
(2.98631 -4.94525e-07 0)
(2.98631 -4.49912e-07 0)
(2.98631 -4.21114e-07 0)
(2.98631 -3.71416e-07 0)
(2.98631 -2.85953e-07 0)
(2.98631 -1.76691e-07 0)
(2.98631 -5.8805e-08 0)
(2.98631 4.23365e-08 0)
(2.98631 1.08833e-07 0)
(2.98631 1.50412e-07 0)
(2.98631 1.78611e-07 0)
(2.98631 1.84244e-07 0)
(2.98631 1.62484e-07 0)
(2.98631 1.41114e-07 0)
(2.98631 1.57459e-07 0)
(2.98631 2.16047e-07 0)
(2.98631 2.82216e-07 0)
(2.98631 3.09719e-07 0)
(2.98631 2.73634e-07 0)
(2.98631 1.90909e-07 0)
(2.98631 9.88503e-08 0)
(2.98631 2.20989e-08 0)
(2.98631 -4.1686e-08 0)
(2.98631 -1.13176e-07 0)
(2.98631 -1.91176e-07 0)
(2.98631 -2.37663e-07 0)
(2.98631 -2.27892e-07 0)
(2.98631 -1.93511e-07 0)
(2.98631 -1.92947e-07 0)
(2.98631 -2.50497e-07 0)
(2.98631 -3.34324e-07 0)
(2.98631 -4.00199e-07 0)
(2.98631 -4.32431e-07 0)
(2.98631 -4.5197e-07 0)
(2.98631 -4.92598e-07 0)
(2.98631 -5.70443e-07 0)
(2.98631 -6.63791e-07 0)
(2.98631 -7.21496e-07 0)
(2.98631 -7.12181e-07 0)
(2.98631 -6.62859e-07 0)
(2.98631 -6.22644e-07 0)
(2.98631 -6.07976e-07 0)
(2.98631 -5.90399e-07 0)
(2.98631 -5.34448e-07 0)
(2.98631 -4.40823e-07 0)
(2.98631 -3.54479e-07 0)
(2.98631 -3.17924e-07 0)
(2.98631 -3.16423e-07 0)
(2.98631 -2.94971e-07 0)
(2.98631 -2.25257e-07 0)
(2.98631 -1.33573e-07 0)
(2.98631 -6.36147e-08 0)
(2.98631 -2.64553e-08 0)
(2.98631 6.26129e-09 0)
(2.98631 6.5232e-08 0)
(2.98631 1.52232e-07 0)
(2.98631 2.46367e-07 0)
(2.98631 3.16747e-07 0)
(2.98631 3.37238e-07 0)
(2.98631 3.15731e-07 0)
(2.98631 2.96684e-07 0)
(2.98631 3.08443e-07 0)
(2.98631 3.25741e-07 0)
(2.98631 3.00368e-07 0)
(2.98631 2.19283e-07 0)
(2.98631 1.1853e-07 0)
(2.98631 3.77875e-08 0)
(2.98631 -2.49175e-08 0)
(2.98631 -9.66206e-08 0)
(2.98631 -1.84941e-07 0)
(2.98631 -2.66469e-07 0)
(2.98631 -3.08263e-07 0)
(2.98631 -2.96859e-07 0)
(2.98631 -2.66312e-07 0)
(2.98631 -2.6995e-07 0)
(2.98631 -3.05422e-07 0)
(2.98631 -3.29508e-07 0)
(2.98631 -3.27121e-07 0)
(2.98631 -2.98391e-07 0)
(2.98631 -2.31663e-07 0)
(2.98631 -1.4478e-07 0)
(2.98631 -7.81545e-08 0)
(2.98631 -3.30675e-08 0)
(2.98631 3.02787e-08 0)
(2.98631 1.26589e-07 0)
(2.98631 2.19827e-07 0)
(2.98631 2.86677e-07 0)
(2.98631 3.67209e-07 0)
(2.98631 4.90544e-07 0)
(2.98631 6.1076e-07 0)
(2.98631 6.80341e-07 0)
(2.98631 7.08389e-07 0)
(2.98631 7.19985e-07 0)
(2.98631 7.14874e-07 0)
(2.98631 6.85102e-07 0)
(2.98631 6.47294e-07 0)
(2.98631 6.24436e-07 0)
(2.98631 5.8009e-07 0)
(2.98631 4.67731e-07 0)
(2.98631 3.15906e-07 0)
(2.98631 1.7611e-07 0)
(2.98631 3.90793e-08 0)
(2.98631 -1.30922e-07 0)
(2.98631 -2.9768e-07 0)
(2.98631 -4.00076e-07 0)
(2.98631 -4.69601e-07 0)
(2.98631 -5.3246e-07 0)
(2.98631 -6.61935e-07 0)
(2.98631 -8.30614e-07 0)
(2.98631 -9.88274e-07 0)
(2.98631 -1.23279e-06 0)
(2.98631 -1.3532e-06 0)
(3.48461 5.6524e-07 0)
(3.48461 1.09152e-06 0)
(3.48461 1.75408e-06 0)
(3.48461 2.4159e-06 0)
(3.48461 3.26965e-06 0)
(3.48461 3.8711e-06 0)
(3.48461 4.45777e-06 0)
(3.48461 4.96805e-06 0)
(3.48461 5.52021e-06 0)
(3.48461 5.76628e-06 0)
(3.48461 5.77252e-06 0)
(3.48461 5.62519e-06 0)
(3.48461 5.37539e-06 0)
(3.48461 5.08598e-06 0)
(3.48461 4.71831e-06 0)
(3.4846 4.3122e-06 0)
(3.4846 3.96033e-06 0)
(3.4846 3.59867e-06 0)
(3.4846 3.19279e-06 0)
(3.4846 2.81208e-06 0)
(3.4846 2.4928e-06 0)
(3.48459 2.23033e-06 0)
(3.48459 1.98063e-06 0)
(3.48459 1.67025e-06 0)
(3.48459 1.31243e-06 0)
(3.48459 1.01222e-06 0)
(3.48459 8.10102e-07 0)
(3.48459 6.53231e-07 0)
(3.48459 5.02519e-07 0)
(3.48459 3.52696e-07 0)
(3.48459 1.92723e-07 0)
(3.48459 2.32012e-08 0)
(3.48459 -1.44696e-07 0)
(3.48459 -3.10074e-07 0)
(3.48458 -4.55687e-07 0)
(3.48458 -5.3582e-07 0)
(3.48458 -5.20682e-07 0)
(3.48458 -4.29354e-07 0)
(3.48458 -3.25465e-07 0)
(3.48458 -2.76657e-07 0)
(3.48458 -2.92317e-07 0)
(3.48458 -3.14953e-07 0)
(3.48458 -2.85335e-07 0)
(3.48458 -1.93463e-07 0)
(3.48458 -6.69414e-08 0)
(3.48458 5.07605e-08 0)
(3.48458 1.25042e-07 0)
(3.48458 1.53043e-07 0)
(3.48458 1.64566e-07 0)
(3.48458 1.89645e-07 0)
(3.48458 2.3224e-07 0)
(3.48458 2.80274e-07 0)
(3.48458 3.27936e-07 0)
(3.48458 3.7253e-07 0)
(3.48458 4.06466e-07 0)
(3.48458 4.13572e-07 0)
(3.48458 3.7435e-07 0)
(3.48458 2.8661e-07 0)
(3.48458 1.70699e-07 0)
(3.48458 6.16807e-08 0)
(3.48458 -5.58188e-09 0)
(3.48458 -2.59206e-08 0)
(3.48458 -3.34597e-08 0)
(3.48458 -5.52804e-08 0)
(3.48458 -8.26265e-08 0)
(3.48458 -9.92606e-08 0)
(3.48458 -1.13776e-07 0)
(3.48458 -1.52799e-07 0)
(3.48458 -2.30625e-07 0)
(3.48458 -3.35934e-07 0)
(3.48458 -4.42452e-07 0)
(3.48458 -5.34906e-07 0)
(3.48458 -6.14495e-07 0)
(3.48458 -6.91882e-07 0)
(3.48458 -7.80071e-07 0)
(3.48458 -8.76758e-07 0)
(3.48458 -9.50876e-07 0)
(3.48458 -9.6758e-07 0)
(3.48458 -9.27272e-07 0)
(3.48458 -8.64925e-07 0)
(3.48458 -8.13639e-07 0)
(3.48458 -7.77958e-07 0)
(3.48458 -7.40231e-07 0)
(3.48459 -6.88638e-07 0)
(3.48459 -6.29711e-07 0)
(3.48459 -5.71438e-07 0)
(3.48459 -5.03482e-07 0)
(3.48459 -4.05245e-07 0)
(3.48459 -2.7357e-07 0)
(3.48459 -1.35358e-07 0)
(3.48459 -2.43875e-08 0)
(3.48459 5.0379e-08 0)
(3.48459 1.07072e-07 0)
(3.48459 1.69141e-07 0)
(3.48459 2.48372e-07 0)
(3.48459 3.41964e-07 0)
(3.48458 4.25482e-07 0)
(3.48458 4.69743e-07 0)
(3.48458 4.74512e-07 0)
(3.48458 4.68552e-07 0)
(3.48458 4.72728e-07 0)
(3.48458 4.70644e-07 0)
(3.48458 4.23039e-07 0)
(3.48458 3.17428e-07 0)
(3.48458 1.92502e-07 0)
(3.48458 9.3205e-08 0)
(3.48458 1.84397e-08 0)
(3.48458 -5.76432e-08 0)
(3.48458 -1.50268e-07 0)
(3.48458 -2.57368e-07 0)
(3.48458 -3.58339e-07 0)
(3.48458 -4.32043e-07 0)
(3.48458 -4.91966e-07 0)
(3.48458 -5.4632e-07 0)
(3.48458 -5.72303e-07 0)
(3.48458 -5.6073e-07 0)
(3.48458 -5.25871e-07 0)
(3.48458 -4.6856e-07 0)
(3.48458 -3.867e-07 0)
(3.48458 -3.01539e-07 0)
(3.48458 -2.33494e-07 0)
(3.48458 -1.66722e-07 0)
(3.48458 -6.05897e-08 0)
(3.48458 9.3582e-08 0)
(3.48458 2.53587e-07 0)
(3.48458 3.87757e-07 0)
(3.48458 5.07525e-07 0)
(3.48458 6.19856e-07 0)
(3.48458 7.06491e-07 0)
(3.48458 7.60149e-07 0)
(3.48458 7.89601e-07 0)
(3.48458 8.05879e-07 0)
(3.48458 8.0569e-07 0)
(3.48458 7.77779e-07 0)
(3.48458 7.28691e-07 0)
(3.48458 6.55345e-07 0)
(3.48458 5.33991e-07 0)
(3.48458 3.62935e-07 0)
(3.48458 1.55787e-07 0)
(3.48458 -6.8337e-08 0)
(3.48458 -2.73377e-07 0)
(3.48458 -4.33281e-07 0)
(3.48458 -5.56874e-07 0)
(3.48458 -6.76155e-07 0)
(3.48458 -8.28337e-07 0)
(3.48458 -1.01416e-06 0)
(3.48458 -1.18319e-06 0)
(3.48458 -1.34316e-06 0)
(3.48458 -1.51886e-06 0)
(3.48458 -1.59046e-06 0)
(3.83712 3.93855e-07 0)
(3.83712 8.60799e-07 0)
(3.83712 1.35179e-06 0)
(3.83712 1.89458e-06 0)
(3.83712 2.79699e-06 0)
(3.83712 3.61965e-06 0)
(3.83713 4.378e-06 0)
(3.83713 5.09751e-06 0)
(3.83713 5.81084e-06 0)
(3.83713 6.35218e-06 0)
(3.83713 6.67574e-06 0)
(3.83713 6.75478e-06 0)
(3.83713 6.68587e-06 0)
(3.83712 6.56983e-06 0)
(3.83712 6.3709e-06 0)
(3.83712 6.04448e-06 0)
(3.83712 5.63227e-06 0)
(3.83712 5.17071e-06 0)
(3.83712 4.70732e-06 0)
(3.83712 4.30822e-06 0)
(3.83712 3.97812e-06 0)
(3.83711 3.65854e-06 0)
(3.83711 3.29147e-06 0)
(3.83711 2.86331e-06 0)
(3.83711 2.42094e-06 0)
(3.83711 2.03444e-06 0)
(3.83711 1.71479e-06 0)
(3.83711 1.41624e-06 0)
(3.83711 1.11942e-06 0)
(3.83711 8.4126e-07 0)
(3.83711 5.81863e-07 0)
(3.8371 3.31583e-07 0)
(3.8371 1.04324e-07 0)
(3.8371 -7.13244e-08 0)
(3.8371 -1.73189e-07 0)
(3.8371 -1.89681e-07 0)
(3.8371 -1.31763e-07 0)
(3.8371 -3.72026e-08 0)
(3.8371 4.11763e-08 0)
(3.8371 5.86079e-08 0)
(3.8371 1.04909e-08 0)
(3.8371 -6.19866e-08 0)
(3.8371 -1.08897e-07 0)
(3.8371 -1.06625e-07 0)
(3.8371 -6.09675e-08 0)
(3.8371 1.0044e-08 0)
(3.8371 8.91006e-08 0)
(3.8371 1.63254e-07 0)
(3.8371 2.30013e-07 0)
(3.8371 2.98376e-07 0)
(3.8371 3.75725e-07 0)
(3.8371 4.50627e-07 0)
(3.8371 4.99884e-07 0)
(3.8371 5.07146e-07 0)
(3.8371 4.75474e-07 0)
(3.8371 4.20486e-07 0)
(3.8371 3.56989e-07 0)
(3.8371 2.94183e-07 0)
(3.8371 2.39685e-07 0)
(3.8371 1.96116e-07 0)
(3.8371 1.65863e-07 0)
(3.8371 1.53515e-07 0)
(3.8371 1.45791e-07 0)
(3.8371 1.15277e-07 0)
(3.8371 5.6828e-08 0)
(3.8371 -9.98408e-09 0)
(3.8371 -6.74943e-08 0)
(3.8371 -1.20703e-07 0)
(3.8371 -1.93595e-07 0)
(3.8371 -2.99592e-07 0)
(3.8371 -4.28018e-07 0)
(3.8371 -5.62532e-07 0)
(3.8371 -6.93485e-07 0)
(3.8371 -8.10921e-07 0)
(3.8371 -9.1106e-07 0)
(3.8371 -1.00255e-06 0)
(3.8371 -1.08864e-06 0)
(3.8371 -1.14869e-06 0)
(3.8371 -1.16198e-06 0)
(3.8371 -1.13624e-06 0)
(3.8371 -1.10292e-06 0)
(3.8371 -1.08207e-06 0)
(3.8371 -1.06308e-06 0)
(3.8371 -1.02013e-06 0)
(3.8371 -9.41424e-07 0)
(3.8371 -8.35892e-07 0)
(3.8371 -7.18977e-07 0)
(3.8371 -5.94623e-07 0)
(3.8371 -4.56329e-07 0)
(3.8371 -3.01555e-07 0)
(3.8371 -1.43879e-07 0)
(3.8371 -1.59782e-09 0)
(3.8371 1.18779e-07 0)
(3.8371 2.2198e-07 0)
(3.8371 3.12021e-07 0)
(3.8371 3.94402e-07 0)
(3.8371 4.74837e-07 0)
(3.8371 5.48494e-07 0)
(3.8371 6.0328e-07 0)
(3.8371 6.31608e-07 0)
(3.8371 6.35977e-07 0)
(3.8371 6.21752e-07 0)
(3.8371 5.78262e-07 0)
(3.8371 4.8658e-07 0)
(3.8371 3.57253e-07 0)
(3.8371 2.32305e-07 0)
(3.8371 1.28424e-07 0)
(3.8371 2.29548e-08 0)
(3.8371 -1.01416e-07 0)
(3.8371 -2.43069e-07 0)
(3.8371 -3.87593e-07 0)
(3.8371 -5.12412e-07 0)
(3.8371 -6.05437e-07 0)
(3.8371 -6.66706e-07 0)
(3.8371 -6.8908e-07 0)
(3.8371 -6.73331e-07 0)
(3.8371 -6.41487e-07 0)
(3.8371 -6.05638e-07 0)
(3.8371 -5.52075e-07 0)
(3.8371 -4.66636e-07 0)
(3.8371 -3.57148e-07 0)
(3.8371 -2.47372e-07 0)
(3.8371 -1.35729e-07 0)
(3.8371 5.91699e-09 0)
(3.8371 1.76188e-07 0)
(3.8371 3.39936e-07 0)
(3.8371 4.86556e-07 0)
(3.8371 6.27891e-07 0)
(3.8371 7.57554e-07 0)
(3.8371 8.52417e-07 0)
(3.8371 9.00003e-07 0)
(3.8371 9.22081e-07 0)
(3.8371 9.49272e-07 0)
(3.8371 9.66371e-07 0)
(3.8371 9.21157e-07 0)
(3.8371 7.96946e-07 0)
(3.8371 6.24629e-07 0)
(3.8371 4.24165e-07 0)
(3.8371 1.69078e-07 0)
(3.8371 -1.1678e-07 0)
(3.8371 -3.27732e-07 0)
(3.8371 -4.55824e-07 0)
(3.8371 -6.17659e-07 0)
(3.8371 -8.13035e-07 0)
(3.8371 -1.06156e-06 0)
(3.8371 -1.2345e-06 0)
(3.8371 -1.35782e-06 0)
(3.8371 -1.48056e-06 0)
(3.8371 -1.58315e-06 0)
(3.8371 -1.67119e-06 0)
(4.04724 3.79517e-08 0)
(4.04724 3.4737e-07 0)
(4.04724 7.22234e-07 0)
(4.04724 1.23406e-06 0)
(4.04724 1.81145e-06 0)
(4.04724 2.56897e-06 0)
(4.04724 3.40506e-06 0)
(4.04725 4.42056e-06 0)
(4.04725 5.21035e-06 0)
(4.04725 5.88773e-06 0)
(4.04725 6.41126e-06 0)
(4.04725 6.75518e-06 0)
(4.04725 7.03385e-06 0)
(4.04725 7.26115e-06 0)
(4.04725 7.34009e-06 0)
(4.04725 7.2099e-06 0)
(4.04725 6.92319e-06 0)
(4.04724 6.57714e-06 0)
(4.04724 6.20094e-06 0)
(4.04724 5.78573e-06 0)
(4.04724 5.34086e-06 0)
(4.04724 4.87405e-06 0)
(4.04724 4.39554e-06 0)
(4.04724 3.93694e-06 0)
(4.04724 3.51061e-06 0)
(4.04724 3.08979e-06 0)
(4.04724 2.64876e-06 0)
(4.04724 2.19453e-06 0)
(4.04723 1.76094e-06 0)
(4.04723 1.37987e-06 0)
(4.04723 1.05918e-06 0)
(4.04723 7.89885e-07 0)
(4.04723 5.77182e-07 0)
(4.04723 4.41043e-07 0)
(4.04723 3.87394e-07 0)
(4.04723 3.89011e-07 0)
(4.04723 4.00231e-07 0)
(4.04723 3.91213e-07 0)
(4.04723 3.57071e-07 0)
(4.04723 2.94564e-07 0)
(4.04723 2.03908e-07 0)
(4.04723 1.05644e-07 0)
(4.04723 3.27011e-08 0)
(4.04723 1.00123e-08 0)
(4.04723 4.57322e-08 0)
(4.04723 1.24729e-07 0)
(4.04723 2.20651e-07 0)
(4.04723 3.15411e-07 0)
(4.04723 3.97765e-07 0)
(4.04723 4.61238e-07 0)
(4.04723 5.09216e-07 0)
(4.04723 5.43976e-07 0)
(4.04723 5.52603e-07 0)
(4.04723 5.24062e-07 0)
(4.04723 4.69135e-07 0)
(4.04723 4.13348e-07 0)
(4.04723 3.73897e-07 0)
(4.04723 3.51692e-07 0)
(4.04723 3.43312e-07 0)
(4.04723 3.42096e-07 0)
(4.04723 3.35133e-07 0)
(4.04723 3.14188e-07 0)
(4.04723 2.7741e-07 0)
(4.04723 2.16341e-07 0)
(4.04723 1.26177e-07 0)
(4.04723 2.24201e-08 0)
(4.04723 -6.59715e-08 0)
(4.04723 -1.30335e-07 0)
(4.04723 -1.9812e-07 0)
(4.04723 -3.02108e-07 0)
(4.04723 -4.42956e-07 0)
(4.04723 -5.975e-07 0)
(4.04723 -7.50541e-07 0)
(4.04723 -8.99334e-07 0)
(4.04723 -1.03637e-06 0)
(4.04723 -1.15331e-06 0)
(4.04723 -1.24795e-06 0)
(4.04723 -1.31365e-06 0)
(4.04723 -1.3392e-06 0)
(4.04723 -1.33035e-06 0)
(4.04723 -1.3165e-06 0)
(4.04723 -1.31817e-06 0)
(4.04723 -1.31854e-06 0)
(4.04723 -1.27908e-06 0)
(4.04723 -1.18153e-06 0)
(4.04723 -1.04296e-06 0)
(4.04723 -8.91061e-07 0)
(4.04723 -7.428e-07 0)
(4.04723 -5.92157e-07 0)
(4.04723 -4.19425e-07 0)
(4.04723 -2.19618e-07 0)
(4.04723 -2.17414e-08 0)
(4.04723 1.46457e-07 0)
(4.04723 2.82694e-07 0)
(4.04723 4.00107e-07 0)
(4.04723 5.02824e-07 0)
(4.04723 5.90664e-07 0)
(4.04723 6.66416e-07 0)
(4.04723 7.30656e-07 0)
(4.04723 7.71945e-07 0)
(4.04723 7.74287e-07 0)
(4.04723 7.39395e-07 0)
(4.04723 6.82655e-07 0)
(4.04723 6.01005e-07 0)
(4.04723 4.80573e-07 0)
(4.04723 3.38149e-07 0)
(4.04723 2.0401e-07 0)
(4.04723 7.80931e-08 0)
(4.04723 -5.71047e-08 0)
(4.04723 -1.97363e-07 0)
(4.04723 -3.25592e-07 0)
(4.04723 -4.31376e-07 0)
(4.04723 -5.09067e-07 0)
(4.04723 -5.61001e-07 0)
(4.04723 -5.94306e-07 0)
(4.04723 -6.18014e-07 0)
(4.04723 -6.39944e-07 0)
(4.04723 -6.4899e-07 0)
(4.04723 -6.25198e-07 0)
(4.04723 -5.60106e-07 0)
(4.04723 -4.54078e-07 0)
(4.04723 -3.29081e-07 0)
(4.04723 -2.16168e-07 0)
(4.04723 -9.85452e-08 0)
(4.04723 6.54413e-08 0)
(4.04723 2.7076e-07 0)
(4.04723 4.71666e-07 0)
(4.04723 6.42267e-07 0)
(4.04723 7.97207e-07 0)
(4.04723 9.41995e-07 0)
(4.04723 1.04497e-06 0)
(4.04723 1.08643e-06 0)
(4.04723 1.09516e-06 0)
(4.04723 1.0812e-06 0)
(4.04723 9.97245e-07 0)
(4.04723 8.29298e-07 0)
(4.04723 6.41611e-07 0)
(4.04723 4.73605e-07 0)
(4.04723 2.68569e-07 0)
(4.04723 -1.18675e-08 0)
(4.04723 -2.74257e-07 0)
(4.04723 -4.61411e-07 0)
(4.04723 -6.46705e-07 0)
(4.04723 -8.61909e-07 0)
(4.04723 -1.07945e-06 0)
(4.04723 -1.23193e-06 0)
(4.04723 -1.36001e-06 0)
(4.04723 -1.46698e-06 0)
(4.04723 -1.50398e-06 0)
(4.04723 -1.54562e-06 0)
(4.11705 -6.86568e-07 0)
(4.11705 -4.59224e-07 0)
(4.11705 -8.99501e-08 0)
(4.11705 4.27079e-07 0)
(4.11705 8.28107e-07 0)
(4.11705 1.43793e-06 0)
(4.11705 2.19708e-06 0)
(4.11705 3.16714e-06 0)
(4.11705 3.90488e-06 0)
(4.11706 4.68185e-06 0)
(4.11706 5.54437e-06 0)
(4.11706 6.31039e-06 0)
(4.11706 6.92428e-06 0)
(4.11706 7.3783e-06 0)
(4.11706 7.62495e-06 0)
(4.11706 7.64494e-06 0)
(4.11706 7.5036e-06 0)
(4.11706 7.28132e-06 0)
(4.11706 6.9891e-06 0)
(4.11706 6.6065e-06 0)
(4.11706 6.14232e-06 0)
(4.11706 5.6278e-06 0)
(4.11706 5.11414e-06 0)
(4.11705 4.65106e-06 0)
(4.11705 4.22504e-06 0)
(4.11705 3.77324e-06 0)
(4.11705 3.26934e-06 0)
(4.11705 2.7516e-06 0)
(4.11705 2.27677e-06 0)
(4.11705 1.87357e-06 0)
(4.11705 1.53352e-06 0)
(4.11705 1.24089e-06 0)
(4.11705 1.00344e-06 0)
(4.11705 8.45954e-07 0)
(4.11705 7.80761e-07 0)
(4.11705 7.77543e-07 0)
(4.11705 7.63277e-07 0)
(4.11705 6.80252e-07 0)
(4.11705 5.39753e-07 0)
(4.11705 3.97304e-07 0)
(4.11705 2.94609e-07 0)
(4.11705 2.42566e-07 0)
(4.11705 2.28423e-07 0)
(4.11705 2.35799e-07 0)
(4.11705 2.6609e-07 0)
(4.11705 3.21398e-07 0)
(4.11705 3.8295e-07 0)
(4.11705 4.31934e-07 0)
(4.11705 4.6382e-07 0)
(4.11705 4.78191e-07 0)
(4.11705 4.82609e-07 0)
(4.11705 4.89408e-07 0)
(4.11705 4.94235e-07 0)
(4.11705 4.77405e-07 0)
(4.11705 4.35122e-07 0)
(4.11705 3.93492e-07 0)
(4.11705 3.83158e-07 0)
(4.11705 4.06457e-07 0)
(4.11705 4.378e-07 0)
(4.11705 4.47294e-07 0)
(4.11705 4.20016e-07 0)
(4.11705 3.6302e-07 0)
(4.11705 3.01515e-07 0)
(4.11705 2.53798e-07 0)
(4.11705 2.05392e-07 0)
(4.11705 1.26682e-07 0)
(4.11705 1.11237e-08 0)
(4.11705 -1.1359e-07 0)
(4.11705 -2.26125e-07 0)
(4.11705 -3.39349e-07 0)
(4.11705 -4.73858e-07 0)
(4.11705 -6.27647e-07 0)
(4.11705 -7.8501e-07 0)
(4.11705 -9.36743e-07 0)
(4.11705 -1.07274e-06 0)
(4.11705 -1.18133e-06 0)
(4.11705 -1.26522e-06 0)
(4.11705 -1.33642e-06 0)
(4.11705 -1.39101e-06 0)
(4.11705 -1.41197e-06 0)
(4.11705 -1.40153e-06 0)
(4.11705 -1.38487e-06 0)
(4.11705 -1.37495e-06 0)
(4.11705 -1.35215e-06 0)
(4.11705 -1.28501e-06 0)
(4.11705 -1.16115e-06 0)
(4.11705 -9.90493e-07 0)
(4.11705 -7.97313e-07 0)
(4.11705 -6.06964e-07 0)
(4.11705 -4.21813e-07 0)
(4.11705 -2.25809e-07 0)
(4.11705 -1.29894e-08 0)
(4.11705 1.93764e-07 0)
(4.11705 3.68157e-07 0)
(4.11705 5.03848e-07 0)
(4.11705 6.11933e-07 0)
(4.11705 7.03912e-07 0)
(4.11705 7.85871e-07 0)
(4.11705 8.57396e-07 0)
(4.11705 9.01615e-07 0)
(4.11705 8.8919e-07 0)
(4.11705 8.13886e-07 0)
(4.11705 7.16396e-07 0)
(4.11705 6.34026e-07 0)
(4.11705 5.46972e-07 0)
(4.11705 4.20459e-07 0)
(4.11705 2.67562e-07 0)
(4.11705 1.25862e-07 0)
(4.11705 3.60716e-09 0)
(4.11705 -1.08574e-07 0)
(4.11705 -2.14847e-07 0)
(4.11705 -3.16628e-07 0)
(4.11705 -4.16544e-07 0)
(4.11705 -5.09526e-07 0)
(4.11705 -5.83719e-07 0)
(4.11705 -6.45304e-07 0)
(4.11705 -7.10639e-07 0)
(4.11705 -7.59586e-07 0)
(4.11705 -7.50609e-07 0)
(4.11705 -6.83582e-07 0)
(4.11705 -5.80003e-07 0)
(4.11705 -4.49435e-07 0)
(4.11705 -3.13726e-07 0)
(4.11705 -1.85072e-07 0)
(4.11705 -3.23049e-08 0)
(4.11705 1.68088e-07 0)
(4.11705 3.77799e-07 0)
(4.11705 5.46146e-07 0)
(4.11705 6.79273e-07 0)
(4.11705 8.10918e-07 0)
(4.11705 9.29452e-07 0)
(4.11705 9.99054e-07 0)
(4.11705 1.01658e-06 0)
(4.11705 9.86776e-07 0)
(4.11705 9.00254e-07 0)
(4.11705 7.68515e-07 0)
(4.11705 6.18656e-07 0)
(4.11705 4.54531e-07 0)
(4.11705 2.69076e-07 0)
(4.11705 5.98209e-08 0)
(4.11705 -1.81818e-07 0)
(4.11705 -4.42384e-07 0)
(4.11705 -6.8788e-07 0)
(4.11705 -9.19763e-07 0)
(4.11705 -1.07431e-06 0)
(4.11705 -1.21032e-06 0)
(4.11705 -1.33628e-06 0)
(4.11705 -1.4294e-06 0)
(4.11705 -1.41371e-06 0)