/*--------------------------------*- C++ -*----------------------------------*\
| =========                 |                                                 |
| \\      /  F ield         | OpenFOAM: The Open Source CFD Toolbox           |
|  \\    /   O peration     | Version:  2406                                  |
|   \\  /    A nd           | Website:  www.openfoam.com                      |
|    \\/     M anipulation  |                                                 |
\*---------------------------------------------------------------------------*/
FoamFile
{
    version     2.0;
    format      ascii;
    arch        "LSB;label=32;scalar=64";
    class       volScalarField;
    location    "0.3";
    object      alpha.glycerin;
}
// * * * * * * * * * * * * * * * * * * * * * * * * * * * * * * * * * * * * * //

dimensions      [0 0 0 0 0 0 0];

internalField   nonuniform List<scalar> 
6250
(
4.79244e-320
4.79244e-320
4.79342e-320
4.79441e-320
4.79441e-320
4.79639e-320
4.79639e-320
4.79837e-320
4.79837e-320
4.80034e-320
4.80133e-320
4.80232e-320
4.80331e-320
4.80429e-320
4.80627e-320
4.80726e-320
4.80825e-320
4.80923e-320
4.81022e-320
4.8122e-320
4.81319e-320
4.81418e-320
4.81615e-320
4.81615e-320
4.81813e-320
4.81912e-320
4.8201e-320
-4.82208e-320
-4.82307e-320
-4.82406e-320
-4.82603e-320
-4.82603e-320
-4.82801e-320
-4.82999e-320
-4.82999e-320
-4.83196e-320
-4.83295e-320
-4.83394e-320
-4.83591e-320
-4.8369e-320
-4.83789e-320
-4.83987e-320
-4.83987e-320
-4.84184e-320
-4.84283e-320
-4.84382e-320
-4.8458e-320
-4.84678e-320
-4.84777e-320
-4.84975e-320
-4.85074e-320
-4.85172e-320
-4.8537e-320
-4.8537e-320
-4.85568e-320
-4.85667e-320
-4.85765e-320
-4.85963e-320
-4.86062e-320
-4.86161e-320
-4.86358e-320
-4.86457e-320
-4.86556e-320
-4.86753e-320
-4.86753e-320
-4.86951e-320
-4.87149e-320
-4.87149e-320
-4.87346e-320
-4.87445e-320
-4.87544e-320
-4.87742e-320
-4.8784e-320
-4.87939e-320
-4.88137e-320
-4.88236e-320
-4.88334e-320
-4.88532e-320
-4.88532e-320
-4.8873e-320
-4.88829e-320
-4.88927e-320
-4.89125e-320
-4.89224e-320
-4.89323e-320
-4.8952e-320
-4.89619e-320
-4.89718e-320
-4.89915e-320
-4.89915e-320
-4.90113e-320
-4.90212e-320
-4.90311e-320
-4.90508e-320
-4.90607e-320
-4.90706e-320
-4.90904e-320
-4.91002e-320
-4.91101e-320
-4.91299e-320
-4.91398e-320
-4.91497e-320
-4.91694e-320
-4.91694e-320
-4.91892e-320
-4.91991e-320
-4.92089e-320
-4.92287e-320
-4.92386e-320
-4.92485e-320
-4.92682e-320
-4.92781e-320
-4.9288e-320
-4.93078e-320
-4.93078e-320
-4.93275e-320
-4.93473e-320
-4.93473e-320
-4.9367e-320
-4.93769e-320
-4.93868e-320
-4.94066e-320
-4.94164e-320
-4.94263e-320
-4.94461e-320
-4.9456e-320
-4.94659e-320
-4.94856e-320
-4.94856e-320
-4.95054e-320
-4.95251e-320
-4.95251e-320
-4.95449e-320
-4.95548e-320
-4.95647e-320
-4.95844e-320
-4.95943e-320
-4.96042e-320
-4.9624e-320
-4.96338e-320
-4.96437e-320
-4.96635e-320
-4.96635e-320
-4.96832e-320
-4.96931e-320
-4.9703e-320
-4.97228e-320
-4.97326e-320
-4.97425e-320
-4.97623e-320
-4.97722e-320
-4.97821e-320
-4.98018e-320
-4.98117e-320
-4.98216e-320
-4.98413e-320
-4.98413e-320
-4.98611e-320
-4.9871e-320
-4.98809e-320
-4.99006e-320
-4.99105e-320
-4.99204e-320
-4.99402e-320
-4.995e-320
-4.99599e-320
-4.99797e-320
-4.99797e-320
-4.99994e-320
-5.00093e-320
-5.00192e-320
-5.0039e-320
-5.00488e-320
-5.00587e-320
-5.00785e-320
-5.00884e-320
-5.00983e-320
-5.0118e-320
-5.0118e-320
-5.01378e-320
-5.01477e-320
-5.01575e-320
-5.01773e-320
-5.01872e-320
-5.01971e-320
-5.02168e-320
-5.02267e-320
-5.02366e-320
-5.02564e-320
-5.02564e-320
-5.02761e-320
-5.0286e-320
-5.02959e-320
-5.03156e-320
-5.03255e-320
-5.03354e-320
-5.03552e-320
-5.03552e-320
-5.03749e-320
-5.03848e-320
-5.03947e-320
-5.04145e-320
-5.04145e-320
-5.04342e-320
-5.04441e-320
-5.0454e-320
-5.04737e-320
-5.04737e-320
-5.04935e-320
-5.05034e-320
-5.05133e-320
-5.0533e-320
-5.0533e-320
-5.05528e-320
-5.05627e-320
-5.05726e-320
-5.05923e-320
-5.05923e-320
-5.06121e-320
-5.06121e-320
-6.88564e-318
-7.81778e-306
-1.1453e-293
-5.52784e-281
-1.10317e-268
-6.92788e-257
-3.01216e-245
-1.03877e-233
-1.58269e-221
-9.36226e-210
-1.76384e-198
-1.47616e-187
-5.65196e-177
-2.31714e-166
-1.57334e-155
-3.08336e-145
-1.19357e-135
-7.80068e-126
-5.98104e-117
-5.20747e-109
-5.02709e-102
-1.62483e-97
-2.37639e-91
-1.56904e-83
-2.45982e-81
-1.76263e-79
-7.94506e-78
-2.58813e-76
-6.19708e-75
-1.14536e-73
4.79046e-320
4.79046e-320
4.78848e-320
4.78848e-320
4.78848e-320
4.7875e-320
4.78651e-320
4.78651e-320
4.78552e-320
4.78453e-320
4.78453e-320
4.78354e-320
4.78256e-320
4.78256e-320
4.78157e-320
4.78058e-320
4.78058e-320
4.77959e-320
4.7786e-320
4.7786e-320
4.77761e-320
4.77663e-320
4.77663e-320
4.77663e-320
4.77465e-320
4.77465e-320
4.77465e-320
-4.77366e-320
-4.77267e-320
-4.77267e-320
-4.77169e-320
-4.7707e-320
-4.7707e-320
-4.76971e-320
-4.76872e-320
-4.76872e-320
-4.76773e-320
-4.76675e-320
-4.76675e-320
-4.76675e-320
-4.76477e-320
-4.76477e-320
-4.76477e-320
-4.76378e-320
-4.76279e-320
-4.76279e-320
-4.7618e-320
-4.76082e-320
-4.76082e-320
-4.76082e-320
-4.75884e-320
-4.75884e-320
-4.75884e-320
-4.75785e-320
-4.75686e-320
-4.75686e-320
-4.75588e-320
-4.75489e-320
-4.75489e-320
-4.75489e-320
-4.7539e-320
-4.75291e-320
-4.75291e-320
-4.75192e-320
-4.75094e-320
-4.75094e-320
-4.75094e-320
-4.74995e-320
-4.74896e-320
-4.74896e-320
-4.74797e-320
-4.74698e-320
-4.74698e-320
-4.74698e-320
-4.74599e-320
-4.74501e-320
-4.74501e-320
-4.74501e-320
-4.74402e-320
-4.74303e-320
-4.74303e-320
-4.74303e-320
-4.74105e-320
-4.74105e-320
-4.74105e-320
-4.74007e-320
-4.73908e-320
-4.73908e-320
-4.73908e-320
-4.73809e-320
-4.7371e-320
-4.7371e-320
-4.7371e-320
-4.73611e-320
-4.73513e-320
-4.73513e-320
-4.73513e-320
-4.73414e-320
-4.73315e-320
-4.73315e-320
-4.73315e-320
-4.73216e-320
-4.73117e-320
-4.73117e-320
-4.73117e-320
-4.73018e-320
-4.7292e-320
-4.7292e-320
-4.7292e-320
-4.72821e-320
-4.72722e-320
-4.72722e-320
-4.72722e-320
-4.72623e-320
-4.72524e-320
-4.72524e-320
-4.72524e-320
-4.72426e-320
-4.72327e-320
-4.72327e-320
-4.72327e-320
-4.72327e-320
-4.72228e-320
-4.72129e-320
-4.72129e-320
-4.72129e-320
-4.7203e-320
-4.71932e-320
-4.71932e-320
-4.71932e-320
-4.71833e-320
-4.71833e-320
-4.71734e-320
-4.71734e-320
-4.71734e-320
-4.71635e-320
-4.71536e-320
-4.71536e-320
-4.71536e-320
-4.71536e-320
-4.71437e-320
-4.71339e-320
-4.71339e-320
-4.71339e-320
-4.7124e-320
-4.71141e-320
-4.71141e-320
-4.71141e-320
-4.71141e-320
-4.71042e-320
-4.70943e-320
-4.70943e-320
-4.70943e-320
-4.70943e-320
-4.70845e-320
-4.70746e-320
-4.70746e-320
-4.70746e-320
-4.70746e-320
-4.70647e-320
-4.70548e-320
-4.70548e-320
-4.70548e-320
-4.70548e-320
-4.70449e-320
-4.7035e-320
-4.7035e-320
-4.7035e-320
-4.7035e-320
-4.70252e-320
-4.70153e-320
-4.70153e-320
-4.70153e-320
-4.70153e-320
-4.70054e-320
-4.70054e-320
-4.69955e-320
-4.69955e-320
-4.69955e-320
-4.69955e-320
-4.69856e-320
-4.69758e-320
-4.69758e-320
-4.69758e-320
-4.69758e-320
-4.69659e-320
-4.69659e-320
-4.6956e-320
-4.6956e-320
-4.6956e-320
-4.6956e-320
-4.69461e-320
-4.69461e-320
-4.69362e-320
-4.69362e-320
-4.69362e-320
-4.69362e-320
-4.69264e-320
-4.69264e-320
-4.69165e-320
-4.69165e-320
-4.69165e-320
-4.69165e-320
-4.69066e-320
-4.69066e-320
-4.68967e-320
-4.68967e-320
-4.68967e-320
-4.68967e-320
-4.68967e-320
-4.68868e-320
-4.68868e-320
-4.68769e-320
-4.68769e-320
-4.68769e-320
-4.68769e-320
-4.68769e-320
-4.68671e-320
-4.68671e-320
-4.68572e-320
-1.49959e-318
-2.00447e-306
-3.48351e-294
-2.02175e-281
-4.90765e-269
-3.78356e-257
-2.03405e-245
-8.72137e-234
-1.65884e-221
-1.22724e-209
-2.89534e-198
-3.03821e-187
-1.79677e-176
-1.50624e-165
-1.1943e-154
-2.46782e-144
-2.52898e-134
-1.45867e-124
-9.19822e-116
-9.5755e-108
-3.02884e-100
-1.16002e-94
-1.44882e-88
-5.53514e-82
-9.62941e-80
-7.48843e-78
-3.61416e-76
-1.25298e-74
-3.08252e-73
-5.84327e-72
4.79046e-320
4.79046e-320
4.79046e-320
4.79046e-320
4.79046e-320
4.79046e-320
4.79046e-320
4.79046e-320
4.79046e-320
4.79046e-320
4.79046e-320
4.79046e-320
4.79046e-320
4.78947e-320
4.78947e-320
4.78947e-320
4.78947e-320
4.78947e-320
4.78947e-320
4.78848e-320
4.78848e-320
4.78848e-320
4.78848e-320
4.78848e-320
4.78848e-320
4.78848e-320
4.78848e-320
-4.78848e-320
-4.78848e-320
-4.78848e-320
-4.78848e-320
-4.78848e-320
-4.78848e-320
-4.78848e-320
-4.78848e-320
-4.78848e-320
-4.78848e-320
-4.78848e-320
-4.7875e-320
-4.7875e-320
-4.7875e-320
-4.7875e-320
-4.7875e-320
-4.7875e-320
-4.7875e-320
-4.78651e-320
-4.78651e-320
-4.78651e-320
-4.78651e-320
-4.78651e-320
-4.78651e-320
-4.78651e-320
-4.78651e-320
-4.78651e-320
-4.78651e-320
-4.78651e-320
-4.78651e-320
-4.78651e-320
-4.78651e-320
-4.78651e-320
-4.78651e-320
-4.78651e-320
-4.78651e-320
-4.78651e-320
-4.78552e-320
-4.78552e-320
-4.78552e-320
-4.78552e-320
-4.78552e-320
-4.78453e-320
-4.78453e-320
-4.78453e-320
-4.78453e-320
-4.78453e-320
-4.78453e-320
-4.78453e-320
-4.78453e-320
-4.78453e-320
-4.78453e-320
-4.78453e-320
-4.78453e-320
-4.78453e-320
-4.78453e-320
-4.78453e-320
-4.78453e-320
-4.78453e-320
-4.78354e-320
-4.78354e-320
-4.78354e-320
-4.78354e-320
-4.78354e-320
-4.78256e-320
-4.78256e-320
-4.78256e-320
-4.78256e-320
-4.78256e-320
-4.78256e-320
-4.78256e-320
-4.78256e-320
-4.78256e-320
-4.78256e-320
-4.78256e-320
-4.78256e-320
-4.78256e-320
-4.78256e-320
-4.78256e-320
-4.78157e-320
-4.78157e-320
-4.78157e-320
-4.78157e-320
-4.78157e-320
-4.78058e-320
-4.78058e-320
-4.78058e-320
-4.78058e-320
-4.78058e-320
-4.78058e-320
-4.78058e-320
-4.78058e-320
-4.78058e-320
-4.78058e-320
-4.78058e-320
-4.78058e-320
-4.78058e-320
-4.78058e-320
-4.77959e-320
-4.77959e-320
-4.77959e-320
-4.77959e-320
-4.77959e-320
-4.7786e-320
-4.7786e-320
-4.7786e-320
-4.7786e-320
-4.7786e-320
-4.7786e-320
-4.7786e-320
-4.7786e-320
-4.7786e-320
-4.7786e-320
-4.7786e-320
-4.7786e-320
-4.7786e-320
-4.77761e-320
-4.77761e-320
-4.77761e-320
-4.77761e-320
-4.77663e-320
-4.77663e-320
-4.77663e-320
-4.77663e-320
-4.77663e-320
-4.77663e-320
-4.77663e-320
-4.77663e-320
-4.77663e-320
-4.77663e-320
-4.77663e-320
-4.77663e-320
-4.77564e-320
-4.77564e-320
-4.77564e-320
-4.77564e-320
-4.77465e-320
-4.77465e-320
-4.77465e-320
-4.77465e-320
-4.77465e-320
-4.77465e-320
-4.77465e-320
-4.77465e-320
-4.77465e-320
-4.77465e-320
-4.77465e-320
-4.77465e-320
-4.77366e-320
-4.77366e-320
-4.77366e-320
-4.77366e-320
-4.77267e-320
-4.77267e-320
-4.77267e-320
-4.77267e-320
-4.77267e-320
-4.77267e-320
-4.77267e-320
-4.77267e-320
-4.77267e-320
-4.77267e-320
-4.77267e-320
-4.77169e-320
-4.77169e-320
-4.77169e-320
-4.77169e-320
-4.7707e-320
-4.7707e-320
-4.7707e-320
-4.7707e-320
-4.7707e-320
-4.7707e-320
-4.7707e-320
-4.7707e-320
-4.7707e-320
-4.7707e-320
-4.7707e-320
-4.76971e-320
-4.76971e-320
-4.76971e-320
-4.76971e-320
-4.76872e-320
-4.76872e-320
-4.76872e-320
-4.76872e-320
-4.76872e-320
-4.76872e-320
-4.76872e-320
-4.76872e-320
-4.76872e-320
-4.76872e-320
-4.76872e-320
-4.99007e-316
-6.41595e-304
-1.082e-291
-6.11327e-279
-1.44879e-266
-1.09332e-254
-5.76698e-243
-2.43135e-231
-4.5578e-219
-3.33583e-207
-7.81632e-196
-8.17789e-185
-5.14702e-174
-4.63559e-163
-3.52948e-152
-7.50202e-142
-8.37771e-132
-4.58449e-122
-2.78838e-113
-2.99095e-105
-1.54416e-97
-1.22075e-91
-1.30993e-85
-1.90502e-79
-3.29627e-77
-2.53137e-75
-1.20315e-73
-4.09723e-72
-9.80408e-71
-1.76554e-69
4.79046e-320
4.79046e-320
4.79046e-320
4.79046e-320
4.79046e-320
4.79046e-320
4.79046e-320
4.79046e-320
4.79046e-320
4.79046e-320
4.79046e-320
4.79046e-320
4.78947e-320
4.78947e-320
4.78947e-320
4.78947e-320
4.78947e-320
4.78947e-320
4.78947e-320
4.78947e-320
4.78848e-320
4.78848e-320
4.78848e-320
4.78848e-320
4.78848e-320
4.78848e-320
4.78848e-320
-4.78848e-320
-4.78848e-320
-4.78848e-320
-4.78848e-320
-4.78848e-320
-4.78848e-320
-4.78848e-320
-4.78848e-320
-4.78848e-320
-4.78848e-320
-4.78848e-320
-4.78848e-320
-4.78848e-320
-4.78848e-320
-4.78848e-320
-4.78848e-320
-4.78848e-320
-4.78848e-320
-4.7875e-320
-4.7875e-320
-4.7875e-320
-4.7875e-320
-4.7875e-320
-4.7875e-320
-4.7875e-320
-4.7875e-320
-4.78651e-320
-4.78651e-320
-4.78651e-320
-4.78651e-320
-4.78651e-320
-4.78651e-320
-4.78651e-320
-4.78651e-320
-4.78651e-320
-4.78651e-320
-4.78651e-320
-4.78651e-320
-4.78651e-320
-4.78651e-320
-4.78651e-320
-4.78651e-320
-4.78651e-320
-4.78651e-320
-4.78651e-320
-4.78651e-320
-4.78651e-320
-4.78651e-320
-4.78651e-320
-4.78651e-320
-4.78651e-320
-4.78552e-320
-4.78552e-320
-4.78552e-320
-4.78552e-320
-4.78552e-320
-4.78552e-320
-4.78552e-320
-4.78552e-320
-4.78552e-320
-4.78453e-320
-4.78453e-320
-4.78453e-320
-4.78453e-320
-4.78453e-320
-4.78453e-320
-4.78453e-320
-4.78453e-320
-4.78453e-320
-4.78453e-320
-4.78453e-320
-4.78453e-320
-4.78453e-320
-4.78453e-320
-4.78453e-320
-4.78453e-320
-4.78453e-320
-4.78453e-320
-4.78453e-320
-4.78453e-320
-4.78453e-320
-4.78453e-320
-4.78453e-320
-4.78453e-320
-4.78354e-320
-4.78354e-320
-4.78354e-320
-4.78354e-320
-4.78354e-320
-4.78354e-320
-4.78354e-320
-4.78354e-320
-4.78256e-320
-4.78256e-320
-4.78256e-320
-4.78256e-320
-4.78256e-320
-4.78256e-320
-4.78256e-320
-4.78256e-320
-4.78256e-320
-4.78256e-320
-4.78256e-320
-4.78256e-320
-4.78256e-320
-4.78256e-320
-4.78256e-320
-4.78256e-320
-4.78256e-320
-4.78256e-320
-4.78256e-320
-4.78256e-320
-4.78256e-320
-4.78256e-320
-4.78256e-320
-4.78157e-320
-4.78157e-320
-4.78157e-320
-4.78157e-320
-4.78157e-320
-4.78157e-320
-4.78157e-320
-4.78157e-320
-4.78058e-320
-4.78058e-320
-4.78058e-320
-4.78058e-320
-4.78058e-320
-4.78058e-320
-4.78058e-320
-4.78058e-320
-4.78058e-320
-4.78058e-320
-4.78058e-320
-4.78058e-320
-4.78058e-320
-4.78058e-320
-4.78058e-320
-4.78058e-320
-4.78058e-320
-4.78058e-320
-4.78058e-320
-4.78058e-320
-4.78058e-320
-4.78058e-320
-4.78058e-320
-4.77959e-320
-4.77959e-320
-4.77959e-320
-4.77959e-320
-4.77959e-320
-4.77959e-320
-4.77959e-320
-4.7786e-320
-4.7786e-320
-4.7786e-320
-4.7786e-320
-4.7786e-320
-4.7786e-320
-4.7786e-320
-4.7786e-320
-4.7786e-320
-4.7786e-320
-4.7786e-320
-4.7786e-320
-4.7786e-320
-4.7786e-320
-4.7786e-320
-4.7786e-320
-4.7786e-320
-4.7786e-320
-4.7786e-320
-4.7786e-320
-4.7786e-320
-4.7786e-320
-4.77761e-320
-4.77761e-320
-4.77761e-320
-4.77761e-320
-4.77761e-320
-4.77761e-320
-4.77761e-320
-4.77663e-320
-4.77663e-320
-4.77663e-320
-4.77663e-320
-4.77663e-320
-4.77663e-320
-4.77663e-320
-4.77663e-320
-4.77663e-320
-4.77663e-320
-4.77663e-320
-3.54843e-314
-4.55262e-302
-7.69607e-290
-4.37654e-277
-1.04783e-264
-8.01546e-253
-4.29925e-241
-1.8487e-229
-3.54516e-217
-2.66222e-205
-6.42004e-194
-6.93538e-183
-4.69758e-172
-4.60391e-161
-3.54867e-150
-8.01825e-140
-9.93894e-130
-5.38815e-120
-3.31409e-111
-3.77065e-103
-3.21362e-95
-5.22117e-89
-4.73201e-83
-2.93819e-77
-5.14807e-75
-3.9674e-73
-1.88424e-71
-6.39344e-70
-1.49842e-68
-2.59458e-67
4.79046e-320
4.79046e-320
4.79046e-320
4.79046e-320
4.79046e-320
4.79046e-320
4.79046e-320
4.79046e-320
4.79046e-320
4.79046e-320
4.79046e-320
4.79046e-320
4.79046e-320
4.79046e-320
4.79046e-320
4.79046e-320
4.78947e-320
4.78947e-320
4.78947e-320
4.78947e-320
4.78947e-320
4.78947e-320
4.78947e-320
4.78947e-320
4.78848e-320
4.78848e-320
4.78848e-320
-4.78848e-320
-4.78848e-320
-4.78848e-320
-4.78848e-320
-4.78848e-320
-4.78848e-320
-4.78848e-320
-4.78848e-320
-4.78848e-320
-4.78848e-320
-4.78848e-320
-4.78848e-320
-4.78848e-320
-4.78848e-320
-4.78848e-320
-4.78848e-320
-4.78848e-320
-4.78848e-320
-4.78848e-320
-4.78848e-320
-4.78848e-320
-4.7875e-320
-4.7875e-320
-4.7875e-320
-4.7875e-320
-4.7875e-320
-4.7875e-320
-4.7875e-320
-4.7875e-320
-4.78651e-320
-4.78651e-320
-4.78651e-320
-4.78651e-320
-4.78651e-320
-4.78651e-320
-4.78651e-320
-4.78651e-320
-4.78651e-320
-4.78651e-320
-4.78651e-320
-4.78651e-320
-4.78651e-320
-4.78651e-320
-4.78651e-320
-4.78651e-320
-4.78651e-320
-4.78651e-320
-4.78651e-320
-4.78651e-320
-4.78651e-320
-4.78651e-320
-4.78651e-320
-4.78651e-320
-4.78552e-320
-4.78552e-320
-4.78552e-320
-4.78552e-320
-4.78552e-320
-4.78552e-320
-4.78552e-320
-4.78552e-320
-4.78453e-320
-4.78453e-320
-4.78453e-320
-4.78453e-320
-4.78453e-320
-4.78453e-320
-4.78453e-320
-4.78453e-320
-4.78453e-320
-4.78453e-320
-4.78453e-320
-4.78453e-320
-4.78453e-320
-4.78453e-320
-4.78453e-320
-4.78453e-320
-4.78453e-320
-4.78453e-320
-4.78453e-320
-4.78453e-320
-4.78453e-320
-4.78453e-320
-4.78453e-320
-4.78354e-320
-4.78354e-320
-4.78354e-320
-4.78354e-320
-4.78354e-320
-4.78354e-320
-4.78354e-320
-4.78354e-320
-4.78256e-320
-4.78256e-320
-4.78256e-320
-4.78256e-320
-4.78256e-320
-4.78256e-320
-4.78256e-320
-4.78256e-320
-4.78256e-320
-4.78256e-320
-4.78256e-320
-4.78256e-320
-4.78256e-320
-4.78256e-320
-4.78256e-320
-4.78256e-320
-4.78256e-320
-4.78256e-320
-4.78256e-320
-4.78256e-320
-4.78256e-320
-4.78256e-320
-4.78157e-320
-4.78157e-320
-4.78157e-320
-4.78157e-320
-4.78157e-320
-4.78157e-320
-4.78157e-320
-4.78157e-320
-4.78058e-320
-4.78058e-320
-4.78058e-320
-4.78058e-320
-4.78058e-320
-4.78058e-320
-4.78058e-320
-4.78058e-320
-4.78058e-320
-4.78058e-320
-4.78058e-320
-4.78058e-320
-4.78058e-320
-4.78058e-320
-4.78058e-320
-4.78058e-320
-4.78058e-320
-4.78058e-320
-4.78058e-320
-4.78058e-320
-4.78058e-320
-4.78058e-320
-4.77959e-320
-4.77959e-320
-4.77959e-320
-4.77959e-320
-4.77959e-320
-4.77959e-320
-4.77959e-320
-4.7786e-320
-4.7786e-320
-4.7786e-320
-4.7786e-320
-4.7786e-320
-4.7786e-320
-4.7786e-320
-4.7786e-320
-4.7786e-320
-4.7786e-320
-4.7786e-320
-4.7786e-320
-4.7786e-320
-4.7786e-320
-4.7786e-320
-4.7786e-320
-4.7786e-320
-4.7786e-320
-4.7786e-320
-4.7786e-320
-4.7786e-320
-4.77761e-320
-4.77761e-320
-4.77761e-320
-4.77761e-320
-4.77761e-320
-4.77761e-320
-4.77761e-320
-4.77663e-320
-4.77663e-320
-4.77663e-320
-4.77663e-320
-4.77663e-320
-4.77663e-320
-4.77663e-320
-4.77663e-320
-4.77663e-320
-4.77663e-320
-4.77663e-320
-4.77663e-320
-4.77663e-320
-4.77663e-320
-1.63707e-312
-2.1082e-300
-3.59129e-288
-2.06551e-275
-5.01844e-263
-3.90816e-251
-2.14056e-239
-9.42747e-228
-1.85725e-215
-1.43722e-203
-3.58313e-192
-4.01527e-181
-2.85564e-170
-2.99129e-159
-2.40036e-148
-5.74908e-138
-7.75709e-128
-4.30191e-118
-2.74816e-109
-3.33375e-101
-4.74746e-93
-1.25862e-86
-9.3831e-81
-3.20318e-75
-5.7028e-73
-4.42505e-71
-2.10634e-69
-7.14197e-68
-1.63633e-66
-2.71653e-65
4.79046e-320
4.79046e-320
4.79046e-320
4.79046e-320
4.79046e-320
4.79046e-320
4.79046e-320
4.79046e-320
4.79046e-320
4.79046e-320
4.79046e-320
4.79046e-320
-4.79046e-320
-4.79046e-320
-4.79046e-320
-4.79046e-320
-4.78947e-320
-4.78947e-320
4.78947e-320
4.78947e-320
4.78947e-320
4.78947e-320
4.78947e-320
4.78947e-320
4.78848e-320
4.78848e-320
4.78848e-320
-4.78848e-320
-4.78848e-320
-4.78848e-320
-4.78848e-320
-4.78848e-320
-4.78848e-320
-4.78848e-320
-4.78848e-320
-4.78848e-320
-4.78848e-320
-4.78848e-320
-4.78848e-320
-4.78848e-320
-4.78848e-320
-4.78848e-320
-4.78848e-320
-4.78848e-320
-4.78848e-320
-4.78848e-320
-4.78848e-320
-4.78848e-320
-4.78848e-320
-4.7875e-320
-4.7875e-320
-4.7875e-320
-4.7875e-320
-4.7875e-320
-4.7875e-320
-4.7875e-320
-4.7875e-320
-4.78651e-320
-4.78651e-320
-4.78651e-320
-4.78651e-320
-4.78651e-320
-4.78651e-320
-4.78651e-320
-4.78651e-320
-4.78651e-320
-4.78651e-320
-4.78651e-320
-4.78651e-320
-4.78651e-320
-4.78651e-320
-4.78651e-320
-4.78651e-320
-4.78651e-320
-4.78651e-320
-4.78651e-320
-4.78651e-320
-4.78651e-320
-4.78651e-320
-4.78651e-320
-4.78651e-320
-4.78651e-320
-4.78552e-320
-4.78552e-320
-4.78552e-320
-4.78552e-320
-4.78552e-320
-4.78552e-320
-4.78552e-320
-4.78552e-320
-4.78453e-320
-4.78453e-320
-4.78453e-320
-4.78453e-320
-4.78453e-320
-4.78453e-320
-4.78453e-320
-4.78453e-320
-4.78453e-320
-4.78453e-320
-4.78453e-320
-4.78453e-320
-4.78453e-320
-4.78453e-320
-4.78453e-320
-4.78453e-320
-4.78453e-320
-4.78453e-320
-4.78453e-320
-4.78453e-320
-4.78453e-320
-4.78453e-320
-4.78453e-320
-4.78354e-320
-4.78354e-320
-4.78354e-320
-4.78354e-320
-4.78354e-320
-4.78354e-320
-4.78354e-320
-4.78354e-320
-4.78256e-320
-4.78256e-320
-4.78256e-320
-4.78256e-320
-4.78256e-320
-4.78256e-320
-4.78256e-320
-4.78256e-320
-4.78256e-320
-4.78256e-320
-4.78256e-320
-4.78256e-320
-4.78256e-320
-4.78256e-320
-4.78256e-320
-4.78256e-320
-4.78256e-320
-4.78256e-320
-4.78256e-320
-4.78256e-320
-4.78256e-320
-4.78256e-320
-4.78157e-320
-4.78157e-320
-4.78157e-320
-4.78157e-320
-4.78157e-320
-4.78157e-320
-4.78157e-320
-4.78058e-320
-4.78058e-320
-4.78058e-320
-4.78058e-320
-4.78058e-320
-4.78058e-320
-4.78058e-320
-4.78058e-320
-4.78058e-320
-4.78058e-320
-4.78058e-320
-4.78058e-320
-4.78058e-320
-4.78058e-320
-4.78058e-320
-4.78058e-320
-4.78058e-320
-4.78058e-320
-4.78058e-320
-4.78058e-320
-4.78058e-320
-4.78058e-320
-4.77959e-320
-4.77959e-320
-4.77959e-320
-4.77959e-320
-4.77959e-320
-4.77959e-320
-4.77959e-320
-4.7786e-320
-4.7786e-320
-4.7786e-320
-4.7786e-320
-4.7786e-320
-4.7786e-320
-4.7786e-320
-4.7786e-320
-4.7786e-320
-4.7786e-320
-4.7786e-320
-4.7786e-320
-4.7786e-320
-4.7786e-320
-4.7786e-320
-4.7786e-320
-4.7786e-320
-4.7786e-320
-4.7786e-320
-4.7786e-320
-4.7786e-320
-4.7786e-320
-4.77761e-320
-4.77761e-320
-4.77761e-320
-4.77761e-320
-4.77761e-320
-4.77761e-320
-4.77761e-320
-4.77663e-320
-4.77663e-320
-4.77663e-320
-4.77663e-320
-4.77663e-320
-4.77663e-320
-4.77663e-320
-4.77663e-320
-4.77663e-320
-4.77663e-320
-4.77663e-320
-4.77663e-320
-5.9908e-311
-7.75262e-299
-1.3319e-286
-7.75199e-274
-1.91215e-261
-1.51652e-249
-8.48514e-238
-3.82932e-226
-7.75466e-214
-6.18885e-202
-1.59674e-190
-1.85844e-179
-1.37799e-168
-1.52475e-157
-1.28585e-146
-3.24876e-136
-4.69875e-126
-2.71827e-116
-1.82488e-107
-2.35378e-99
-5.19945e-91
-1.89395e-84
-1.13733e-78
-2.77884e-73
-5.03436e-71
-3.93922e-69
-1.88237e-67
-6.38925e-66
-1.42751e-64
-2.26293e-63
4.79046e-320
4.79046e-320
4.79046e-320
4.79046e-320
4.79046e-320
4.79046e-320
4.79046e-320
4.79046e-320
4.79046e-320
4.79046e-320
4.79046e-320
4.79046e-320
-4.79046e-320
-4.79046e-320
-4.79046e-320
-4.79046e-320
-4.79046e-320
-4.79046e-320
-4.78947e-320
4.78947e-320
4.78947e-320
4.78947e-320
4.78947e-320
4.78947e-320
4.78947e-320
4.78947e-320
4.78947e-320
-4.78848e-320
-4.78848e-320
-4.78848e-320
-4.78848e-320
-4.78848e-320
-4.78848e-320
-4.78848e-320
-4.78848e-320
-4.78848e-320
-4.78848e-320
-4.78848e-320
-4.78848e-320
-4.78848e-320
-4.78848e-320
-4.78848e-320
-4.78848e-320
-4.78848e-320
-4.78848e-320
-4.78848e-320
-4.78848e-320
-4.78848e-320
-4.78848e-320
-4.78848e-320
-4.78848e-320
-4.78848e-320
-4.7875e-320
-4.7875e-320
-4.7875e-320
-4.7875e-320
-4.7875e-320
-4.7875e-320
-4.7875e-320
-4.7875e-320
-4.78651e-320
-4.78651e-320
-4.78651e-320
-4.78651e-320
-4.78651e-320
-4.78651e-320
-4.78651e-320
-4.78651e-320
-4.78651e-320
-4.78651e-320
-4.78651e-320
-4.78651e-320
-4.78651e-320
-4.78651e-320
-4.78651e-320
-4.78651e-320
-4.78651e-320
-4.78651e-320
-4.78651e-320
-4.78651e-320
-4.78651e-320
-4.78651e-320
-4.78651e-320
-4.78651e-320
-4.78552e-320
-4.78552e-320
-4.78552e-320
-4.78552e-320
-4.78552e-320
-4.78552e-320
-4.78552e-320
-4.78552e-320
-4.78453e-320
-4.78453e-320
-4.78453e-320
-4.78453e-320
-4.78453e-320
-4.78453e-320
-4.78453e-320
-4.78453e-320
-4.78453e-320
-4.78453e-320
-4.78453e-320
-4.78453e-320
-4.78453e-320
-4.78453e-320
-4.78453e-320
-4.78453e-320
-4.78453e-320
-4.78453e-320
-4.78453e-320
-4.78453e-320
-4.78453e-320
-4.78453e-320
-4.78453e-320
-4.78354e-320
-4.78354e-320
-4.78354e-320
-4.78354e-320
-4.78354e-320
-4.78354e-320
-4.78354e-320
-4.78354e-320
-4.78256e-320
-4.78256e-320
-4.78256e-320
-4.78256e-320
-4.78256e-320
-4.78256e-320
-4.78256e-320
-4.78256e-320
-4.78256e-320
-4.78256e-320
-4.78256e-320
-4.78256e-320
-4.78256e-320
-4.78256e-320
-4.78256e-320
-4.78256e-320
-4.78256e-320
-4.78256e-320
-4.78256e-320
-4.78256e-320
-4.78256e-320
-4.78256e-320
-4.78157e-320
-4.78157e-320
-4.78157e-320
-4.78157e-320
-4.78157e-320
-4.78157e-320
-4.78157e-320
-4.78058e-320
-4.78058e-320
-4.78058e-320
-4.78058e-320
-4.78058e-320
-4.78058e-320
-4.78058e-320
-4.78058e-320
-4.78058e-320
-4.78058e-320
-4.78058e-320
-4.78058e-320
-4.78058e-320
-4.78058e-320
-4.78058e-320
-4.78058e-320
-4.78058e-320
-4.78058e-320
-4.78058e-320
-4.78058e-320
-4.78058e-320
-4.78058e-320
-4.77959e-320
-4.77959e-320
-4.77959e-320
-4.77959e-320
-4.77959e-320
-4.77959e-320
-4.77959e-320
-4.7786e-320
-4.7786e-320
-4.7786e-320
-4.7786e-320
-4.7786e-320
-4.7786e-320
-4.7786e-320
-4.7786e-320
-4.7786e-320
-4.7786e-320
-4.7786e-320
-4.7786e-320
-4.7786e-320
-4.7786e-320
-4.7786e-320
-4.7786e-320
-4.7786e-320
-4.7786e-320
-4.7786e-320
-4.7786e-320
-4.7786e-320
-4.7786e-320
-4.77761e-320
-4.77761e-320
-4.77761e-320
-4.77761e-320
-4.77761e-320
-4.77761e-320
-4.77761e-320
-4.77663e-320
-4.77663e-320
-4.77663e-320
-4.77663e-320
-4.77663e-320
-4.77663e-320
-4.77663e-320
-4.77663e-320
-4.77663e-320
-4.77663e-320
-1.82686e-309
-2.37714e-297
-4.12049e-285
-2.42763e-272
-6.0809e-260
-4.91292e-248
-2.80913e-236
-1.29975e-224
-2.7076e-212
-2.23067e-200
-5.96287e-189
-7.21808e-178
-5.58807e-167
-6.4938e-156
-5.76856e-145
-1.53646e-134
-2.36087e-124
-1.43767e-114
-1.01826e-105
-1.39129e-97
-3.86839e-89
-1.84434e-82
-9.09399e-77
-2.00967e-71
-3.70978e-69
-2.93108e-67
-1.40793e-65
-4.78986e-64
-1.03882e-62
-1.5618e-61
-4.79046e-320
-4.79046e-320
-4.79046e-320
-4.79046e-320
-4.79046e-320
-4.79046e-320
-4.79046e-320
-4.79046e-320
-4.79046e-320
-4.79046e-320
-4.79046e-320
-4.79046e-320
-4.79046e-320
-4.79046e-320
-4.79046e-320
-4.79046e-320
-4.79046e-320
-4.79046e-320
-4.79046e-320
4.78947e-320
4.78947e-320
4.78947e-320
4.78947e-320
4.78947e-320
4.78947e-320
4.78947e-320
4.78947e-320
-4.78947e-320
-4.78848e-320
-4.78848e-320
-4.78848e-320
-4.78848e-320
-4.78848e-320
-4.78848e-320
-4.78848e-320
-4.78848e-320
-4.78848e-320
-4.78848e-320
-4.78848e-320
-4.78848e-320
-4.78848e-320
-4.78848e-320
-4.78848e-320
-4.78848e-320
-4.78848e-320
-4.78848e-320
-4.78848e-320
-4.78848e-320
-4.78848e-320
-4.78848e-320
-4.78848e-320
-4.78848e-320
-4.78848e-320
-4.7875e-320
-4.7875e-320
-4.7875e-320
-4.7875e-320
-4.7875e-320
-4.7875e-320
-4.7875e-320
-4.7875e-320
-4.78651e-320
-4.78651e-320
-4.78651e-320
-4.78651e-320
-4.78651e-320
-4.78651e-320
-4.78651e-320
-4.78651e-320
-4.78651e-320
-4.78651e-320
-4.78651e-320
-4.78651e-320
-4.78651e-320
-4.78651e-320
-4.78651e-320
-4.78651e-320
-4.78651e-320
-4.78651e-320
-4.78651e-320
-4.78651e-320
-4.78651e-320
-4.78651e-320
-4.78651e-320
-4.78651e-320
-4.78552e-320
-4.78552e-320
-4.78552e-320
-4.78552e-320
-4.78552e-320
-4.78552e-320
-4.78552e-320
-4.78552e-320
-4.78453e-320
-4.78453e-320
-4.78453e-320
-4.78453e-320
-4.78453e-320
-4.78453e-320
-4.78453e-320
-4.78453e-320
-4.78453e-320
-4.78453e-320
-4.78453e-320
-4.78453e-320
-4.78453e-320
-4.78453e-320
-4.78453e-320
-4.78453e-320
-4.78453e-320
-4.78453e-320
-4.78453e-320
-4.78453e-320
-4.78453e-320
-4.78453e-320
-4.78453e-320
-4.78354e-320
-4.78354e-320
-4.78354e-320
-4.78354e-320
-4.78354e-320
-4.78354e-320
-4.78354e-320
-4.78354e-320
-4.78256e-320
-4.78256e-320
-4.78256e-320
-4.78256e-320
-4.78256e-320
-4.78256e-320
-4.78256e-320
-4.78256e-320
-4.78256e-320
-4.78256e-320
-4.78256e-320
-4.78256e-320
-4.78256e-320
-4.78256e-320
-4.78256e-320
-4.78256e-320
-4.78256e-320
-4.78256e-320
-4.78256e-320
-4.78256e-320
-4.78256e-320
-4.78256e-320
-4.78157e-320
-4.78157e-320
-4.78157e-320
-4.78157e-320
-4.78157e-320
-4.78157e-320
-4.78157e-320
-4.78157e-320
-4.78058e-320
-4.78058e-320
-4.78058e-320
-4.78058e-320
-4.78058e-320
-4.78058e-320
-4.78058e-320
-4.78058e-320
-4.78058e-320
-4.78058e-320
-4.78058e-320
-4.78058e-320
-4.78058e-320
-4.78058e-320
-4.78058e-320
-4.78058e-320
-4.78058e-320
-4.78058e-320
-4.78058e-320
-4.78058e-320
-4.78058e-320
-4.78058e-320
-4.77959e-320
-4.77959e-320
-4.77959e-320
-4.77959e-320
-4.77959e-320
-4.77959e-320
-4.77959e-320
-4.7786e-320
-4.7786e-320
-4.7786e-320
-4.7786e-320
-4.7786e-320
-4.7786e-320
-4.7786e-320
-4.7786e-320
-4.7786e-320
-4.7786e-320
-4.7786e-320
-4.7786e-320
-4.7786e-320
-4.7786e-320
-4.7786e-320
-4.7786e-320
-4.7786e-320
-4.7786e-320
-4.7786e-320
-4.7786e-320
-4.7786e-320
-4.77761e-320
-4.77761e-320
-4.77761e-320
-4.77761e-320
-4.77761e-320
-4.77761e-320
-4.77761e-320
-4.77663e-320
-4.77663e-320
-4.77663e-320
-4.77663e-320
-4.77663e-320
-4.77663e-320
-4.77663e-320
-4.77663e-320
-9.55325e-320
-4.81742e-308
-6.30503e-296
-1.1029e-283
-6.5785e-271
-1.67365e-258
-1.37782e-246
-8.05405e-235
-3.82275e-223
-8.19811e-211
-6.97894e-199
-1.93509e-187
-2.43926e-176
-1.97406e-165
-2.40724e-154
-2.25214e-143
-6.32426e-133
-1.02781e-122
-6.60304e-113
-4.93398e-104
-7.11705e-96
-2.1698e-87
-1.2263e-80
-5.52558e-75
-1.25162e-69
-2.35695e-67
-1.88275e-65
-9.1033e-64
-3.10859e-62
-6.51133e-61
-9.21448e-60
-4.79046e-320
-4.79046e-320
-4.79046e-320
-4.79046e-320
-4.79046e-320
-4.79046e-320
-4.79046e-320
-4.79046e-320
-4.79046e-320
-4.79046e-320
-4.79046e-320
-4.79046e-320
-4.79046e-320
-4.79046e-320
-4.79046e-320
-4.79046e-320
-4.79046e-320
-4.79046e-320
-4.79046e-320
-4.79046e-320
4.79046e-320
4.78947e-320
4.78947e-320
4.78947e-320
4.78947e-320
4.78947e-320
4.78947e-320
-4.78947e-320
-4.78947e-320
-4.78947e-320
-4.78848e-320
-4.78848e-320
-4.78848e-320
-4.78848e-320
-4.78848e-320
-4.78848e-320
-4.78848e-320
-4.78848e-320
-4.78848e-320
-4.78848e-320
-4.78848e-320
-4.78848e-320
-4.78848e-320
-4.78848e-320
-4.78848e-320
-4.78848e-320
-4.78848e-320
-4.78848e-320
-4.78848e-320
-4.78848e-320
-4.78848e-320
-4.78848e-320
-4.78848e-320
-4.78848e-320
-4.78848e-320
-4.7875e-320
-4.7875e-320
-4.7875e-320
-4.7875e-320
-4.7875e-320
-4.7875e-320
-4.7875e-320
-4.7875e-320
-4.78651e-320
-4.78651e-320
-4.78651e-320
-4.78651e-320
-4.78651e-320
-4.78651e-320
-4.78651e-320
-4.78651e-320
-4.78651e-320
-4.78651e-320
-4.78651e-320
-4.78651e-320
-4.78651e-320
-4.78651e-320
-4.78651e-320
-4.78651e-320
-4.78651e-320
-4.78651e-320
-4.78651e-320
-4.78651e-320
-4.78651e-320
-4.78651e-320
-4.78651e-320
-4.78651e-320
-4.78552e-320
-4.78552e-320
-4.78552e-320
-4.78552e-320
-4.78552e-320
-4.78552e-320
-4.78552e-320
-4.78552e-320
-4.78453e-320
-4.78453e-320
-4.78453e-320
-4.78453e-320
-4.78453e-320
-4.78453e-320
-4.78453e-320
-4.78453e-320
-4.78453e-320
-4.78453e-320
-4.78453e-320
-4.78453e-320
-4.78453e-320
-4.78453e-320
-4.78453e-320
-4.78453e-320
-4.78453e-320
-4.78453e-320
-4.78453e-320
-4.78453e-320