/*--------------------------------*- C++ -*----------------------------------*\
| =========                 |                                                 |
| \\      /  F ield         | OpenFOAM: The Open Source CFD Toolbox           |
|  \\    /   O peration     | Version:  2406                                  |
|   \\  /    A nd           | Website:  www.openfoam.com                      |
|    \\/     M anipulation  |                                                 |
\*---------------------------------------------------------------------------*/
FoamFile
{
    version     2.0;
    format      ascii;
    arch        "LSB;label=32;scalar=64";
    class       volScalarField;
    location    "0.3";
    object      p;
}
// * * * * * * * * * * * * * * * * * * * * * * * * * * * * * * * * * * * * * //

dimensions      [1 -1 -2 0 0 0 0];

internalField   nonuniform List<scalar> 
6250
(
-87.2289
-3229.75
-962.983
598.571
524.881
51.0788
-102.843
-21.9502
53.4658
58.1345
37.4543
27.9826
30.2792
33.7773
34.2718
33.2718
32.5944
32.4875
32.5088
32.4149
32.243
32.0783
31.9422
31.8171
31.6899
31.5602
31.4317
31.3056
31.1811
31.0574
30.9344
30.8119
30.6901
30.5688
30.4479
30.3272
30.2069
30.0867
29.9667
29.8468
29.727
29.6073
29.4876
29.3678
29.2481
29.1282
29.0084
28.8884
28.7684
28.6482
28.528
28.4076
28.2871
28.1664
28.0456
27.9247
27.8036
27.6823
27.5609
27.4393
27.3176
27.1957
27.0736
26.9513
26.8289
26.7062
26.5835
26.4605
26.3373
26.214
26.0905
25.9668
25.8429
25.7189
25.5946
25.4702
25.3456
25.2208
25.0958
24.9707
24.8453
24.7198
24.5941
24.4682
24.3421
24.2159
24.0894
23.9628
23.836
23.709
23.5819
23.4545
23.327
23.1993
23.0714
22.9434
22.8151
22.6867
22.5581
22.4293
22.3004
22.1713
22.042
21.9125
21.7828
21.653
21.523
21.3928
21.2624
21.1319
21.0012
20.8703
20.7392
20.608
20.4766
20.3451
20.2133
20.0814
19.9493
19.817
19.6846
19.552
19.4193
19.2863
19.1532
19.0199
18.8865
18.7529
18.6191
18.4852
18.3511
18.2168
18.0824
17.9478
17.813
17.6781
17.543
17.4077
17.2723
17.1367
17.0009
16.865
16.7289
16.5927
16.4563
16.3197
16.183
16.0461
15.9091
15.7719
15.6345
15.497
15.3593
15.2215
15.0835
14.9454
14.8071
14.6686
14.53
14.3912
14.2523
14.1132
13.9739
13.8345
13.695
13.5553
13.4155
13.2755
13.1353
12.995
12.8545
12.7139
12.5731
12.4321
12.2911
12.1499
12.0085
11.867
11.7254
11.5836
11.4416
11.2995
11.1572
11.0147
10.8721
10.7294
10.5865
10.4436
10.3005
10.1572
10.0138
9.87026
9.72652
9.58261
9.43855
9.29434
9.15
9.00554
8.86097
8.71629
8.57148
8.42654
8.28145
8.1362
7.99079
7.84521
7.69947
7.55357
7.40754
7.26138
7.11512
6.96876
6.82232
6.67578
6.52913
6.38235
6.23542
6.08833
5.94107
5.79364
5.64608
5.4984
5.35064
5.20282
5.05497
4.9071
4.7592
4.61125
4.46324
4.31515
4.16699
4.01877
3.87053
3.72232
3.57422
3.4263
3.27865
3.13137
2.98456
2.83836
2.69292
2.54846
2.40538
2.26392
2.1255
1.98838
1.86296
1.71557
1.65117
1.17683
-90.7501
-3236.38
-966.96
597.84
524.657
50.041
-104.219
-23.0301
52.7394
57.5422
36.8786
27.4393
29.8028
33.3673
33.9099
32.945
32.2986
32.221
32.2686
32.1975
32.0451
31.8978
31.7771
31.6659
31.551
31.4323
31.3137
31.1965
31.0801
30.9637
30.8473
30.7308
30.6145
30.4982
30.3818
30.2654
30.1489
30.0323
29.9156
29.7988
29.6818
29.5646
29.4473
29.3299
29.2122
29.0944
28.9763
28.8581
28.7397
28.6211
28.5022
28.3832
28.264
28.1445
28.0248
27.905
27.7849
27.6646
27.5441
27.4234
27.3025
27.1813
27.06
26.9384
26.8167
26.6947
26.5725
26.4501
26.3275
26.2048
26.0818
25.9586
25.8351
25.7115
25.5877
25.4637
25.3395
25.2151
25.0905
24.9657
24.8407
24.7155
24.5901
24.4645
24.3388
24.2128
24.0866
23.9603
23.8337
23.707
23.5801
23.4529
23.3256
23.1981
23.0705
22.9426
22.8146
22.6863
22.5579
22.4293
22.3005
22.1715
22.0424
21.9131
21.7835
21.6538
21.524
21.3939
21.2637
21.1333
21.0027
20.8719
20.741
20.6099
20.4786
20.3471
20.2155
20.0836
19.9516
19.8195
19.6871
19.5546
19.422
19.2891
19.1561
19.0229
18.8895
18.756
18.6223
18.4884
18.3544
18.2202
18.0858
17.9512
17.8165
17.6816
17.5466
17.4114
17.276
17.1405
17.0048
16.8689
16.7329
16.5967
16.4604
16.3238
16.1872
16.0503
15.9133
15.7762
15.6389
15.5014
15.3637
15.2259
15.088
14.9499
14.8116
14.6732
14.5346
14.3959
14.257
14.1179
13.9787
13.8393
13.6998
13.5601
13.4203
13.2803
13.1402
12.9999
12.8595
12.7189
12.5782
12.4373
12.2962
12.155
12.0136
11.8721
11.7304
11.5886
11.4467
11.3047
11.1624
11.0201
10.8775
10.7348
10.5919
10.4489
10.3057
10.1624
10.019
9.87549
9.73183
9.58803
9.44407
9.29994
9.15565
9.01119
8.86657
8.7218
8.5769
8.43188
8.28674
8.1415
7.99614
7.85065
7.70503
7.55925
7.41331
7.2672
7.12093
6.9745
6.82792
6.68122
6.53442
6.38753
6.24055
6.09348
5.94631
5.79901
5.65158
5.50399
5.35625
5.20835
5.06031
4.91217
4.76394
4.61564
4.4673
4.31893
4.17052
4.02205
3.87353
3.72493
3.57624
3.42747
3.27862
3.12968
2.98067
2.83155
2.68226
2.53266
2.38248
2.23129
2.07814
1.92225
1.75932
1.59477
1.39791
1.31113
-90.5802
-3235.64
-966.206
598.287
525.022
50.4432
-103.764
-22.5468
53.2195
57.9986
37.3062
27.8435
30.1879
33.7329
34.254
33.2676
32.6012
32.5053
32.5358
32.4484
32.2808
32.1193
31.9855
31.862
31.7357
31.6065
31.478
31.3516
31.2266
31.1023
30.9784
30.855
30.7321
30.6097
30.4877
30.3659
30.2444
30.1231
30.002
29.8809
29.76
29.6392
29.5184
29.3976
29.2768
29.156
29.0351
28.9142
28.7933
28.6722
28.5511
28.4299
28.3086
28.1872
28.0656
27.9439
27.8222
27.7002
27.5782
27.4559
27.3336
27.2111
27.0884
26.9656
26.8426
26.7195
26.5962
26.4728
26.3492
26.2254
26.1015
25.9773
25.8531
25.7286
25.604
25.4792
25.3542
25.2291
25.1038
24.9783
24.8527
24.7269
24.6009
24.4747
24.3484
24.2218
24.0951
23.9683
23.8412
23.714
23.5866
23.4591
23.3313
23.2034
23.0754
22.9471
22.8187
22.6901
22.5613
22.4323
22.3032
22.1739
22.0445
21.9148
21.785
21.655
21.5249
21.3945
21.264
21.1334
21.0025
20.8715
20.7403
20.609
20.4775
20.3458
20.2139
20.0819
19.9497
19.8173
19.6848
19.5521
19.4192
19.2862
19.153
19.0196
18.8861
18.7524
18.6186
18.4845
18.3503
18.216
18.0815
17.9468
17.8119
17.6769
17.5417
17.4064
17.2709
17.1352
16.9994
16.8634
16.7273
16.591
16.4545
16.3179
16.1811
16.0442
15.9071
15.7698
15.6324
15.4948
15.3571
15.2192
15.0811
14.9429
14.8046
14.666
14.5274
14.3885
14.2496
14.1104
13.9712
13.8317
13.6921
13.5524
13.4124
13.2724
13.1321
12.9918
12.8513
12.7106
12.5698
12.4289
12.2878
12.1465
12.0051
11.8635
11.7217
11.5798
11.4378
11.2957
11.1534
11.011
10.8684
10.7257
10.5828
10.4398
10.2965
10.1532
10.0096
9.866
9.72223
9.57834
9.43432
9.29018
9.14588
9.00144
8.85683
8.71206
8.56713
8.42205
8.27682
8.13147
7.98598
7.84038
7.69465
7.54882
7.40285
7.25676
7.11053
6.96415
6.81761
6.67091
6.52405
6.37705
6.22992
6.08267
5.93532
5.78789
5.64036
5.49274
5.34501
5.19716
5.04917
4.90104
4.75275
4.60433
4.45577
4.30712
4.15837
4.00957
3.8607
3.71177
3.56276
3.41365
3.26439
3.11494
2.96525
2.81526
2.66488
2.514
2.36245
2.21003
2.05628
1.90126
1.74287
1.58666
1.4142
1.30655
-91.0845
-3236.87
-967.47
597.264
524.218
49.7349
-104.466
-23.2505
52.5476
57.3765
36.7282
27.2988
29.6723
33.2463
33.7962
32.8366
32.1948
32.1215
32.1732
32.1056
31.9565
31.8121
31.6942
31.5856
31.4731
31.3567
31.2403
31.1251
31.0106
30.8961
30.7813
30.6665
30.5517
30.4369
30.3219
30.2069
30.0916
29.9763
29.8607
29.745
29.629
29.5129
29.3966
29.28
29.1632
29.0462
28.929
28.8116
28.6939
28.576
28.4578
28.3395
28.2209
28.102
27.983
27.8637
27.7441
27.6244
27.5044
27.3842
27.2637
27.1431
27.0222
26.901
26.7797
26.6582
26.5364
26.4144
26.2922
26.1697
26.0471
25.9242
25.8012
25.6779
25.5544
25.4307
25.3068
25.1827
25.0583
24.9338
24.8091
24.6842
24.559
24.4337
24.3082
24.1824
24.0565
23.9304
23.804
23.6775
23.5508
23.4239
23.2968
23.1695
23.042
22.9144
22.7865
22.6584
22.5302
22.4018
22.2732
22.1444
22.0154
21.8862
21.7569
21.6273
21.4976
21.3677
21.2376
21.1074
20.9769
20.8463
20.7155
20.5845
20.4534
20.322
20.1905
20.0588
19.927
19.7949
19.6627
19.5303
19.3978
19.265
19.1321
18.999
18.8658
18.7324
18.5988
18.465
18.3311
18.197
18.0627
17.9283
17.7937
17.6589
17.524
17.3889
17.2536
17.1182
16.9826
16.8468
16.7109
16.5748
16.4385
16.3021
16.1655
16.0288
15.8919
15.7548
15.6176
15.4802
15.3426
15.2049
15.0671
14.929
14.7909
14.6525
14.514
14.3754
14.2365
14.0976
13.9584
13.8192
13.6797
13.5401
13.4004
13.2605
13.1204
12.9802
12.8398
12.6993
12.5586
12.4178
12.2769
12.1358
11.9945
11.8531
11.7115
11.5698
11.4279
11.2858
11.1436
11.0013
10.8588
10.7162
10.5735
10.4306
10.2876
10.1444
10.001
9.85749
9.71381
9.56999
9.42603
9.28194
9.13773
8.99338
8.8489
8.70428
8.55952
8.41461
8.26955
8.12433
7.97895
7.83342
7.68774
7.54193
7.39598
7.24992
7.10375
6.95747
6.81106
6.66453
6.51786
6.37102
6.22403
6.07686
5.92954
5.78207
5.63449
5.4868
5.33903
5.19117
5.04321
4.89515
4.74696
4.59863
4.45012
4.30145
4.15261
4.00361
3.85448
3.70521
3.55582
3.40628
3.25658
3.10667
2.95647
2.80592
2.65491
2.50334
2.3511
2.19807
2.04406
1.88922
1.73267
1.57763
1.41576
1.2867
-91.3475
-3237.32
-967.747
597.179
524.231
49.7768
-104.41
-23.1647
52.6729
57.5363
36.9106
27.4951
29.8789
33.4617
34.0182
33.0625
32.4221
32.3488
32.3991
32.3293
32.1771
32.029
31.9069
31.7937
31.6764
31.555
31.4334
31.3131
31.1934
31.0737
30.9539
30.834
30.7143
30.5947
30.475
30.3553
30.2356
30.1159
29.9962
29.8764
29.7565
29.6366
29.5166
29.3964
29.2762
29.1559
29.0355
28.915
28.7943
28.6735
28.5526
28.4316
28.3104
28.1891
28.0676
27.946
27.8242
27.7023
27.5803
27.4581
27.3357
27.2131
27.0904
26.9676
26.8446
26.7214
26.598
26.4745
26.3508
26.227
26.103
25.9788
25.8544
25.7299
25.6052
25.4804
25.3553
25.2301
25.1047
24.9792
24.8535
24.7276
24.6015
24.4753
24.3488
24.2223
24.0955
23.9686
23.8415
23.7142
23.5867
23.4591
23.3313
23.2034
23.0752
22.9469
22.8184
22.6898
22.5609
22.4319
22.3027
22.1734
22.0439
21.9142
21.7843
21.6543
21.5241
21.3937
21.2632
21.1325
21.0016
20.8705
20.7393
20.6079
20.4764
20.3446
20.2127
20.0807
19.9484
19.816
19.6835
19.5507
19.4178
19.2848
19.1515
19.0181
18.8846
18.7508
18.6169
18.4829
18.3487
18.2143
18.0797
17.945
17.8101
17.6751
17.5399
17.4045
17.269
17.1333
16.9975
16.8615
16.7253
16.589
16.4525
16.3158
16.179
16.042
15.9049
15.7676
15.6302
15.4926
15.3548
15.2169
15.0788
14.9406
14.8022
14.6637
14.525
14.3862
14.2472
14.108
13.9687
13.8292
13.6896
13.5498
13.4099
13.2698
13.1296
12.9893
12.8487
12.708
12.5672
12.4262
12.285
12.1437
12.0023
11.8607
11.719
11.5772
11.4352
11.293
11.1507
11.0082
10.8655
10.7227
10.5798
10.4368
10.2936
10.1503
10.0068
9.8632
9.71944
9.57551
9.43143
9.28719
9.1428
8.99827
8.85361
8.70882
8.56391
8.41888
8.27372
8.12842
7.98297
7.83737
7.69161
7.54568
7.3996
7.25338
7.10701
6.96053
6.81393
6.66723
6.52041
6.37348
6.22641
6.0792
5.93183
5.78429
5.63658
5.48873
5.34073
5.19262
5.04439
4.89606
4.74763
4.59908
4.4504
4.30158
4.15258
4.00341
3.85404
3.70447
3.55471
3.40474
3.25454
3.10412
2.95342
2.8024
2.65102
2.4992
2.34687
2.19397
2.04036
1.88625
1.7308
1.57697
1.41629
1.28672
-91.5736
-3237.78
-968.162
596.844
523.913
49.4412
-104.755
-23.5058
52.3421
57.2136
36.5933
27.1829
29.5729
33.1628
33.7265
32.7778
32.1443
32.0779
32.1352
32.0723
31.9268
31.7854
31.6698
31.5631
31.452
31.3367
31.221
31.1065
30.9924
30.8781
30.7635
30.6487
30.5339
30.419
30.3039
30.1887
30.0733
29.9577
29.842
29.726
29.6099
29.4935
29.377
29.2602
29.1432
29.0261
28.9087
28.791
28.6732
28.5551
28.4369
28.3183
28.1996
28.0807
27.9615
27.8421
27.7225
27.6026
27.4826
27.3623
27.2418
27.1211
27.0002
26.879
26.7577
26.6361
26.5143
26.3923
26.27
26.1476
26.025
25.9021
25.7791
25.6558
25.5323
25.4086
25.2847
25.1607
25.0364
24.9119
24.7872
24.6623
24.5372
24.4119
24.2864
24.1607
24.0348
23.9087
23.7825
23.656
23.5293
23.4025
23.2754
23.1482
23.0208
22.8932
22.7654
22.6374
22.5092
22.3808
22.2523
22.1235
21.9946
21.8655
21.7362
21.6067
21.4771
21.3473
21.2172
21.087
20.9567
20.8261
20.6954
20.5645
20.4334
20.3021
20.1707
20.039
19.9072
19.7753
19.6431
19.5108
19.3783
19.2456
19.1128
18.9798
18.8466
18.7133
18.5797
18.446
18.3122
18.1781
18.0439
17.9096
17.775
17.6403
17.5055
17.3704
17.2352
17.0999
16.9643
16.8286
16.6928
16.5567
16.4205
16.2842
16.1477
16.011
15.8741
15.7371
15.6
15.4627
15.3252
15.1875
15.0497
14.9117
14.7736
14.6353
14.4969
14.3583
14.2196
14.0807
13.9416
13.8024
13.663
13.5234
13.3838
13.2439
13.1039
12.9638
12.8235
12.6831
12.5425
12.4017
12.2608
12.1197
11.9784
11.837
11.6955
11.5539
11.4121
11.2701
11.128
10.9858
10.8434
10.7008
10.558
10.4152
10.2721
10.129
9.98567
9.84225
9.69869
9.55498
9.41112
9.26711
9.12293
8.97859
8.83411
8.68948
8.54471
8.3998
8.25477
8.10961
7.96431
7.81888
7.6733
7.52759
7.38173
7.23571
7.08954
6.94322
6.79675
6.65014
6.50339
6.35651
6.20951
6.0624
5.91515
5.76778
5.62027
5.47261
5.3248
5.17682
5.02867
4.88037
4.73192
4.58333
4.4346
4.28573
4.13672
3.98757
3.83824
3.68873
3.53901
3.38905
3.23882
3.08831
2.93751
2.78639
2.63494
2.48314
2.33096
2.17841
2.0254
1.87218
1.71805
1.56607
1.40851
1.28299
-91.7509
-3238.13
-968.448
596.65
523.765
49.3083
-104.872
-23.5978
52.278
57.1751
36.577
27.1863
29.5946
33.2012
33.7797
32.8441
32.222
32.1655
32.2313
32.1757
32.0365
31.9002
31.7889
31.6855
31.5771
31.4639
31.3497
31.2361
31.1226
31.0084
30.8937
30.7785
30.663
30.5472
30.4311
30.3146
30.1979
30.0809
29.9636
29.846
29.7282
29.6102
29.4919
29.3734
29.2547
29.1357
29.0165
28.8972
28.7776
28.6578
28.5378
28.4176
28.2972
28.1766
28.0558
27.9349
27.8137
27.6923
27.5708
27.449
27.3271
27.205
27.0827
26.9602
26.8376
26.7147
26.5917
26.4685
26.345
26.2215
26.0977
25.9737
25.8496
25.7253
25.6008
25.4761
25.3512
25.2262
25.101
24.9756
24.85
24.7242
24.5983
24.4722
24.3459
24.2194
24.0927
23.9659
23.8389
23.7117
23.5843
23.4568
23.329
23.2011
23.0731
22.9448
22.8164
22.6878
22.559
22.43
22.3009
22.1716
22.0421
21.9125
21.7826
21.6526
21.5225
21.3921
21.2616
21.1309
21.0001
20.869
20.7378
20.6065
20.4749
20.3432
20.2113
20.0793
19.947
19.8147
19.6821
19.5494
19.4165
19.2834
19.1502
19.0168
18.8832
18.7495
18.6156
18.4816
18.3473
18.2129
18.0784
17.9437
17.8088
17.6738
17.5386
17.4032
17.2677
17.132
16.9961
16.8601
16.7239
16.5876
16.4511
16.3144
16.1776
16.0406
15.9035
15.7662
15.6288
15.4912
15.3534
15.2155
15.0774
14.9392
14.8008
14.6622
14.5235
14.3847
14.2456
14.1065
13.9672
13.8277
13.6881
13.5483
13.4083
13.2683
13.128
12.9876
12.8471
12.7064
12.5655
12.4246
12.2834
12.1421
12.0007
11.8591
11.7173
11.5754
11.4334
11.2912
11.1489
11.0064
10.8638
10.721
10.5781
10.4351
10.2918
10.1485
10.0049
9.86127
9.71746
9.57353
9.42946
9.28525
9.14089
8.9964
8.85176
8.70697
8.56203
8.41695
8.27172
8.12633
7.98081
7.83514
7.68934
7.54341
7.39735
7.25116
7.10485
6.9584
6.8118
6.66505
6.51813
6.37106
6.22382
6.07644
5.92893
5.78129
5.63354
5.48568
5.33769
5.18956
5.04128
4.89283
4.7442
4.59538
4.44638
4.29721
4.14787
3.99838
3.84874
3.69893
3.54895
3.39877
3.24836
3.09768
2.94673
2.79546
2.64389
2.492
2.33979
2.18728
2.03439
1.88136
1.72731
1.57505
1.41581
1.28711
-91.8896
-3238.41
-968.68
596.481
523.615
49.151
-105.036
-23.7591
52.1232
57.0254
36.4298
27.0407
29.4505
33.0588
33.6388
32.7044
32.0832
32.0275
32.0942
32.0393
31.9007
31.7651
31.6544
31.5518
31.4441
31.3317
31.2183
31.1056
30.993
30.8798
30.7661
30.6519
30.5375
30.4228
30.3078
30.1925
30.0769
29.9611
29.845
29.7287
29.6122
29.4954
29.3783
29.2611
29.1436
29.0259
28.9079
28.7898
28.6714
28.5528
28.434
28.315
28.1958
28.0764
27.9567
27.8369
27.7168
27.5965
27.4761
27.3554
27.2345
27.1134
26.9921
26.8706
26.7489
26.627
26.5049
26.3826
26.2601
26.1375
26.0146
25.8915
25.7682
25.6447
25.521
25.3971
25.273
25.1488
25.0243
24.8997
24.7748
24.6498
24.5245
24.3991
24.2735
24.1477
24.0217
23.8955
23.7691
23.6426
23.5158
23.3889
23.2618
23.1345
23.007
22.8793
22.7515
22.6234
22.4952
22.3668
22.2382
22.1094
21.9805
21.8514
21.7221
21.5926
21.4629
21.333
21.203
21.0728
20.9424
20.8119
20.6811
20.5502
20.4191
20.2879
20.1564
20.0248
19.893
19.7611
19.6289
19.4966
19.3641
19.2315
19.0987
18.9657
18.8325
18.6992
18.5657
18.432
18.2982
18.1642
18.03
17.8957
17.7612
17.6265
17.4917
17.3566
17.2215
17.0861
16.9506
16.815
16.6791
16.5431
16.407
16.2707
16.1342
15.9976
15.8607
15.7238
15.5867
15.4494
15.3119
15.1743
15.0366
14.8986
14.7606
14.6223
14.4839
14.3454
14.2066
14.0678
13.9287
13.7895
13.6502
13.5107
13.3711
13.2313
13.0914
12.9512
12.811
12.6705
12.5299
12.3892
12.2484
12.1073
11.9662
11.8249
11.6834
11.5418
11.4
11.258
11.1159
10.9737
10.8313
10.6888
10.5461
10.4033
10.2604
10.1173
9.97404
9.83063
9.68706
9.54334
9.39947
9.25546
9.11131
8.96703
8.82261
8.67806
8.53338
8.38854
8.24356
8.09842
7.95313
7.80768
7.66207
7.51632
7.37043
7.22441
7.07826
6.93199
6.78559
6.63906
6.49238
6.34555
6.19855
6.05138
5.90404
5.75655
5.60892
5.46115
5.31325
5.16523
5.01708
4.86878
4.72033
4.5717
4.42288
4.27388
4.12468
3.9753
3.82573
3.67597
3.52604
3.37591
3.22559
3.07505
2.92429
2.77328
2.62201
2.47048
2.31868
2.16664
2.01434
1.86207
1.70922
1.55889
1.40371
1.28077
-91.9968
-3238.62
-968.86
596.35
523.502
49.0377
-105.148
-23.8617
52.034
56.9489
36.3644
26.9857
29.4062
33.0252
33.6154
32.6907
32.0786
32.0314
32.106
32.0586
31.9268
31.7975
31.6927
31.5953
31.4925
31.3844
31.275
31.1659
31.0564
30.9461
30.8349
30.723
30.6105
30.4975
30.384
30.27
30.1556
30.0407
29.9254
29.8098
29.6937
29.5774
29.4607
29.3436
29.2263
29.1086
28.9907
28.8725
28.754
28.6353
28.5163
28.397
28.2775
28.1578
28.0378
27.9176
27.7972
27.6765
27.5556
27.4345
27.3132
27.1917
27.07
26.948
26.8258
26.7035
26.5809
26.4581
26.3351
26.2119
26.0886
25.965
25.8412
25.7172
25.593
25.4687
25.3441
25.2193
25.0944
24.9692
24.8439
24.7184
24.5927
24.4668
24.3407
24.2144
24.0879
23.9613
23.8344
23.7074
23.5802
23.4528
23.3252
23.1975
23.0695
22.9414
22.8131
22.6846
22.5559
22.4271
22.2981
22.1689
22.0395
21.9099
21.7802
21.6503
21.5202
21.3899
21.2595
21.1288
20.998
20.8671
20.7359
20.6046
20.4731
20.3415
20.2096
20.0776
19.9454
19.8131
19.6806
19.5479
19.415
19.282
19.1488
19.0154
18.8819
18.7482
18.6143
18.4803
18.3461
18.2117
18.0772
17.9425
17.8076
17.6726
17.5374
17.4021
17.2665
17.1309
16.995
16.859
16.7229
16.5865
16.45
16.3134
16.1766
16.0396
15.9025
15.7652
15.6278
15.4902
15.3524
15.2145
15.0764
14.9382
14.7998
14.6612
14.5225
14.3837
14.2447
14.1055
13.9662
13.8267
13.687
13.5473
13.4073
13.2672
13.127
12.9866
12.8461
12.7054
12.5645
12.4235
12.2824
12.141
11.9996
11.858
11.7163
11.5744
11.4324
11.2902
11.1479
11.0053
10.8627
10.7199
10.5769
10.4339
10.2907
10.1473
10.0038
9.8602
9.71641
9.57246
9.42836
9.2841
9.1397
8.99516
8.85049
8.70568
8.56073
8.41565
8.27043
8.12506
7.97956
7.8339
7.6881
7.54214
7.39604
7.24979
7.1034
6.95686
6.81018
6.66337
6.51643
6.36936
6.22214
6.07478
5.92727
5.77961
5.63178
5.48379
5.33565
5.18734
5.03889
4.89029
4.74153
4.59263
4.44358
4.29436
4.14497
3.9954
3.84564
3.69569
3.54553
3.39516
3.24458
3.0938
2.94282
2.79163
2.64026
2.48868
2.33689
2.1849
2.03261
1.88023
1.72686
1.57522
1.41637
1.28759
-92.0765
-3238.78
-968.995
596.251
523.417
48.9499
-105.238
-23.9483
51.9535
56.8735
36.2922
26.9161
29.339
32.9603
33.5525
32.6291
32.0181
31.9716
32.0466
31.9994
31.8676
31.7381
31.6328
31.5349
31.4315
31.3227
31.2125
31.1025
30.9922
30.881
30.7689
30.6562
30.5429
30.4291
30.3148
30.2
30.0848
29.9693
29.8533
29.737
29.6204
29.5035
29.3862
29.2687
29.1509
29.0329
28.9146
28.796
28.6773
28.5583
28.439
28.3196
28.1999
28.08
27.9599
27.8396
27.7191
27.5984
27.4775
27.3564
27.2351
27.1136
26.9919
26.87
26.748
26.6257
26.5033
26.3806
26.2578
26.1348
26.0116
25.8882
25.7646
25.6408
25.5169
25.3927
25.2684
25.1439
25.0192
24.8944
24.7693
24.6441
24.5186
24.393
24.2672
24.1413
24.0151
23.8888
23.7623
23.6356
23.5087
23.3816
23.2544
23.127
22.9994
22.8716
22.7437
22.6155
22.4872
22.3587
22.2301
22.1012
21.9722
21.843
21.7136
21.5841
21.4544
21.3245
21.1944
21.0642
20.9337
20.8031
20.6724
20.5414
20.4103
20.279
20.1475
20.0159
19.8841
19.7521
19.62
19.4877
19.3552
19.2225
19.0897
18.9567
18.8235
18.6902
18.5567
18.423
18.2892
18.1552
18.021
17.8867
17.7522
17.6175
17.4827
17.3477
17.2125
17.0772
16.9417
16.806
16.6702
16.5342
16.3981
16.2618
16.1253
15.9887
15.8519
15.715
15.5778
15.4406
15.3031
15.1656
15.0278
14.8899
14.7518
14.6136
14.4752
14.3367
14.198
14.0592
13.9202
13.781
13.6417
13.5022
13.3626
13.2228
13.0829
12.9428
12.8026
12.6622
12.5216
12.381
12.2401
12.0991
11.9579
11.8166
11.6751
11.5335
11.3918
11.2499
11.1079
10.9657
10.8233
10.6808
10.5382
10.3953
10.2524
10.1093
9.96606
9.82268
9.67916
9.53549
9.39167
9.2477
9.10359
8.95933
8.81492
8.67037
8.52567
8.38082
8.23583
8.09069
7.94541
7.79999
7.65443
7.50873
7.3629
7.21693
7.0708
6.92453
6.77809
6.63149
6.48474
6.33784
6.1908
6.04362
5.89632
5.74887
5.60129
5.45356
5.30566
5.1576
5.00935
4.86094
4.71234
4.56358
4.41466
4.26559
4.11636
3.96697
3.81742
3.66769
3.51776
3.36764
3.2173
3.06676
2.916
2.76505
2.61391
2.46261
2.31115
2.15957
2.00784
1.85625
1.70421
1.55482
1.40095
1.27943
-92.1315
-3238.89
-969.089
596.182
523.358
48.889
-105.301
-24.0084
51.8988
56.824
36.247
26.8747
29.3018
32.9277
33.5244
32.6054
31.9986
31.9564
32.0355
31.9923
31.8644
31.7386
31.637
31.5426
31.4425
31.3369
31.2298
31.1228
31.0153
30.9068
30.7973
30.687
30.576
30.4644
30.3523
30.2395
30.1263
30.0125
29.8983
29.7837
29.6686
29.5532
29.4374
29.3212
29.2047
29.0878
28.9707
28.8532
28.7354
28.6174
28.499
28.3804
28.2616
28.1424
28.023
27.9034
27.7835
27.6633
27.5429
27.4223
27.3014
27.1804
27.059
26.9375
26.8157
26.6937
26.5715
26.4491
26.3265
26.2036
26.0805
25.9573
25.8338
25.7101
25.5862
25.4621
25.3377
25.2132
25.0885
24.9636
24.8385
24.7131
24.5876
24.4619
24.336
24.2099
24.0836
23.9571
23.8304
23.7036
23.5765
23.4492
23.3218
23.1942
23.0663
22.9383
22.8101
22.6817
22.5532
22.4244
22.2955
22.1664
22.0371
21.9076
21.7779
21.6481
21.5181
21.3879
21.2575
21.127
20.9962
20.8653
20.7342
20.603
20.4715
20.3399
20.2081
20.0762
19.944
19.8117
19.6792
19.5466
19.4138
19.2808
19.1476
19.0143
18.8808
18.7471
18.6133
18.4792
18.3451
18.2107
18.0762
17.9415
17.8067
17.6717
17.5365
17.4012
17.2657
17.13
16.9942
16.8582
16.722
16.5857
16.4493
16.3126
16.1758
16.0389
15.9017
15.7645
15.627
15.4894
15.3517
15.2138
15.0757
14.9375
14.7991
14.6605
14.5218
14.383
14.244
14.1048
13.9655
13.826
13.6864
13.5466
13.4067
13.2666
13.1264
12.986
12.8454
12.7047
12.5639
12.4229
12.2817
12.1405
11.999
11.8574
11.7157
11.5737
11.4317
11.2895
11.1471
11.0047
10.862
10.7193
10.5764
10.4333
10.2901
10.1467
10.0032
9.85949
9.71567
9.57171
9.42761
9.28338
9.139
8.99449
8.84983
8.70503
8.56008
8.41498
8.26973
8.12433
7.97878
7.83308
7.68724
7.54127
7.39516
7.24893
7.10256
6.95605
6.80939
6.66257
6.5156
6.36846
6.22116
6.07371
5.92612
5.77839
5.63052
5.48252
5.33438
5.18608
5.03763
4.889
4.74019
4.59121
4.44205
4.29271
4.14321
3.99354
3.84372
3.69372
3.54356
3.39323
3.24271
3.09201
2.94112
2.79004
2.63877
2.48732
2.33571
2.18394
2.03193
1.8799
1.7269
1.5756
1.4169
1.28798
-92.1636
-3238.95
-969.146
596.141
523.323
48.8535
-105.338
-24.0448
51.8655
56.7936
36.2183
26.8474
29.276
32.9033
33.5013
32.5833
31.9773
31.9356
32.0151
31.972
31.8441
31.7181
31.6161
31.5211
31.4203
31.3139
31.2058
31.0977
30.9891
30.8794
30.7685
30.6569
30.5445
30.4315
30.3179
30.2037
30.089
29.9738
29.8581
29.742
29.6255
29.5086
29.3914
29.2739
29.156
29.0379
28.9194
28.8007
28.6818
28.5626
28.4432
28.3235
28.2036
28.0835
27.9631
27.8426
27.7219
27.6009
27.4798
27.3584
27.2369
27.1152
26.9933
26.8712
26.7489
26.6264
26.5037
26.3809
26.2579
26.1346
26.0113
25.8877
25.7639
25.64
25.5159
25.3916
25.2671
25.1425
25.0176
24.8926
24.7674
24.6421
24.5165
24.3908
24.2649
24.1388
24.0126
23.8862
23.7595
23.6328
23.5058
23.3787
23.2514
23.1239
22.9962
22.8684
22.7403
22.6121
22.4838
22.3552
22.2265
22.0976
21.9686
21.8393
21.7099
21.5803
21.4505
21.3206
21.1905
21.0602
20.9298
20.7991
20.6683
20.5374
20.4062
20.2749
20.1434
20.0118
19.88
19.748
19.6158
19.4835
19.351
19.2183
19.0855
18.9524
18.8193
18.6859
18.5524
18.4187
18.2849
18.1509
18.0167
17.8824
17.7479
17.6132
17.4784
17.3434
17.2082
17.0729
16.9374
16.8017
16.6659
16.5299
16.3938
16.2575
16.121
15.9844
15.8476
15.7107
15.5736
15.4363
15.2989
15.1613
15.0236
14.8857
14.7476
14.6094
14.471
14.3325
14.1938
14.055
13.916
13.7768
13.6375
13.4981
13.3585
13.2187
13.0788
12.9387
12.7985
12.6581
12.5175
12.3768
12.236
12.095
11.9539
11.8126
11.6712
11.5296
11.3878
11.2459
11.1038
10.9616
10.8193
10.6768
10.5342
10.3914
10.2485
10.1054
9.9622
9.81882
9.67528
9.5316
9.38777
9.2438
9.0997
8.95545
8.81106
8.66653
8.52185
8.37702
8.23205
8.08693
7.94166
7.79624
7.65068
7.50497
7.35911
7.2131
7.06696
6.92068
6.77425
6.62768
6.48097
6.33411
6.18709
6.03992
5.89258
5.74509
5.59745
5.44965
5.30169
5.15359
5.00534
4.85693
4.70837
4.55963
4.41073
4.26165
4.11239
3.96296
3.81334
3.66355
3.51358
3.36344
3.21312
3.06264
2.912
2.76119
2.61022
2.4591
2.30782
2.15643
2.00491
1.85358
1.70188
1.55295
1.39972
1.27888
-92.174
-3238.97
-969.165
596.127
523.312
48.842
-105.351
-24.057
51.8544
56.7836
36.209
26.8387
29.268
32.8962
33.4952
32.5782
31.9732
31.9325
32.0132
31.9713
31.8447
31.72
31.6194
31.5259
31.4267
31.3218
31.2154
31.109
31.0021
30.8942
30.7852
30.6753
30.5648
30.4536
30.3418
30.2295
30.1166
30.0031
29.8893
29.7749
29.6602
29.545
29.4295
29.3136
29.1973
29.0807
28.9638
28.8466
28.729
28.6112
28.4931
28.3746
28.256
28.137
28.0178
27.8983
27.7786
27.6586
27.5384
27.4179
27.2972
27.1763
27.0551
26.9337
26.8121
26.6902
26.5681
26.4458
26.3233
26.2006
26.0776
25.9544
25.831
25.7074
25.5836
25.4596
25.3354
25.2109
25.0863
24.9614
24.8364
24.7111
24.5857
24.46
24.3342
24.2082
24.0819
23.9555
23.8288
23.702
23.575
23.4478
23.3204
23.1928
23.065
22.9371
22.8089
22.6806
22.552
22.4233
22.2944
22.1653
22.0361
21.9066
21.777
21.6472
21.5172
21.387
21.2566
21.1261
20.9954
20.8645
20.7334
20.6022
20.4708
20.3392
20.2074
20.0755
19.9434
19.8111
19.6786
19.546
19.4132
19.2802
19.147
19.0137
18.8802
18.7465
18.6127
18.4787
18.3446
18.2102
18.0757
17.9411
17.8062
17.6712
17.5361
17.4007
17.2652
17.1296
16.9938
16.8578
16.7216
16.5853
16.4489
16.3122
16.1754
16.0385
15.9014
15.7641
15.6267
15.4891
15.3513
15.2134
15.0753
14.9371
14.7987
14.6602
14.5215
14.3827
14.2437
14.1045
13.9652
13.8257
13.6861
13.5463
13.4064
13.2663
13.126
12.9857
12.8451
12.7044
12.5636
12.4226
12.2814
12.1401
11.9987
11.8571
11.7153
11.5735
11.4314
11.2892
11.1469
11.0044
10.8617
10.7189
10.576
10.4329
10.2897
10.1464
10.0029
9.8592
9.71539
9.57144
9.42734
9.2831
9.13871
8.99418
8.84951
8.7047
8.55974
8.41463
8.26937
8.12398
7.97844
7.83277
7.68696
7.541
7.3949
7.24865
7.10224
6.95569
6.80898
6.66213
6.51514
6.36801
6.22074
6.07332
5.92576
5.77805
5.63018
5.48215
5.33396
5.1856
5.03708
4.8884
4.73956
4.59057
4.44142
4.29211
4.14264
3.99299
3.84317
3.69317
3.54298
3.39261
3.24207
3.09134
2.94045
2.7894
2.6382
2.48685
2.33534
2.18369
2.03179
1.87982
1.72685
1.57554
1.41683
1.28793
-92.1636
-3238.95
-969.146
596.141
523.323
48.8535
-105.338
-24.0448
51.8655
56.7936
36.2183
26.8474
29.276
32.9033
33.5013
32.5833
31.9773
31.9356
32.0151
31.972
31.8441
31.7181
31.6161
31.5211
31.4203
31.3139
31.2058
31.0977
30.9891
30.8794
30.7685
30.6569
30.5445
30.4315
30.3179
30.2037
30.089
29.9738
29.8581
29.742
29.6255
29.5086
29.3914
29.2739
29.156
29.0379
28.9194
28.8007
28.6818
28.5626
28.4432
28.3235
28.2036
28.0835
27.9631
27.8426
27.7219
27.6009
27.4798
27.3584
27.2369
27.1152
26.9933
26.8712
26.7489
26.6264
26.5037
26.3809
26.2579
26.1346
26.0113
25.8877
25.7639
25.64
25.5159
25.3916
25.2671
25.1425
25.0176
24.8926
24.7674
24.6421
24.5165
24.3908
24.2649
24.1388
24.0126
23.8862
23.7595
23.6328
23.5058
23.3787
23.2514
23.1239
22.9962
22.8684
22.7403
22.6121
22.4838
22.3552
22.2265
22.0976
21.9686
21.8393
21.7099
21.5803
21.4505
21.3206
21.1905
21.0602
20.9298
20.7991
20.6683
20.5374
20.4062
20.2749
20.1434
20.0118
19.88
19.748
19.6158
19.4835
19.351
19.2183
19.0855
18.9524
18.8193
18.6859
18.5524
18.4187
18.2849
18.1509
18.0167
17.8824
17.7479
17.6132
17.4784
17.3434
17.2082
17.0729
16.9374
16.8017
16.6659
16.5299
16.3938
16.2575
16.121
15.9844
15.8476
15.7107
15.5736
15.4363
15.2989
15.1613
15.0236
14.8857
14.7476
14.6094
14.471
14.3325
14.1938
14.055
13.916
13.7768
13.6375
13.4981
13.3585
13.2187
13.0787
12.9387
12.7984
12.6581
12.5175
12.3769
12.236
12.095
11.9539
11.8126
11.6711
11.5295
11.3878
11.2459
11.1039
10.9617
10.8193
10.6768
10.5342
10.3914
10.2485
10.1054
9.96216
9.81878
9.67526
9.53159
9.38778
9.24383
9.09973
8.95548
8.81109
8.66655
8.52186
8.37702
8.23203
8.0869
7.94162
7.7962
7.65065
7.50495
7.35912
7.21314
7.06701
6.92073
6.7743
6.62771
6.48096
6.33407
6.18703
6.03985
5.89253
5.74506
5.59745
5.44968
5.30175
5.15366
5.0054
4.85697
4.70838
4.55961
4.41068
4.26159
4.11233
3.96291
3.81332
3.66355
3.51362
3.3635
3.21319
3.06271
2.91204
2.76119
2.61019
2.45903
2.30774
2.15636
2.00487
1.85357
1.70191
1.553
1.39977
1.2789
-92.1315
-3238.89
-969.089
596.182
523.358
48.889
-105.301
-24.0084
51.8988
56.824
36.247
26.8747
29.3018
32.9277
33.5244
32.6054
31.9986
31.9564
32.0355
31.9923
31.8644
31.7386
31.637
31.5426
31.4425
31.3369
31.2298
31.1228
31.0153
30.9068
30.7973
30.687
30.576
30.4644
30.3523
30.2395
30.1263
30.0125
29.8983
29.7837
29.6686
29.5532
29.4374
29.3212
29.2047
29.0878
28.9707
28.8532
28.7354
28.6174
28.499
28.3804
28.2616
28.1424
28.023
27.9034
27.7835
27.6633
27.5429
27.4223
27.3014
27.1804
27.059
26.9375
26.8157
26.6937
26.5715
26.4491
26.3265
26.2036
26.0805
25.9573
25.8338
25.7101
25.5862
25.4621
25.3377
25.2132
25.0885
24.9636
24.8385
24.7131
24.5876
24.4619
24.336
24.2099
24.0836
23.9571
23.8304
23.7036
23.5765
23.4492
23.3218
23.1942
23.0663
22.9383
22.8101
22.6817
22.5532
22.4244
22.2955
22.1664
22.0371
21.9076
21.7779
21.6481
21.5181
21.3879
21.2575
21.127
20.9962
20.8653
20.7342
20.603
20.4715
20.3399
20.2081
20.0762
19.944
19.8117
19.6792
19.5466
19.4138
19.2808
19.1476
19.0143
18.8808
18.7471
18.6133
18.4792
18.3451
18.2107
18.0762
17.9415
17.8067
17.6717
17.5365
17.4012
17.2657
17.13
16.9942
16.8582
16.7221
16.5857
16.4493
16.3126
16.1758
16.0389
15.9017
15.7645
15.627
15.4894
15.3517
15.2138
15.0757
14.9375
14.7991
14.6605
14.5218
14.383
14.244
14.1048
13.9655
13.826
13.6864
13.5466
13.4067
13.2666
13.1264
12.986
12.8454
12.7047
12.5639
12.4229
12.2817
12.1405
11.999
11.8574
11.7157
11.5737
11.4317
11.2895