/*--------------------------------*- C++ -*----------------------------------*\
| =========                 |                                                 |
| \\      /  F ield         | OpenFOAM: The Open Source CFD Toolbox           |
|  \\    /   O peration     | Version:  2406                                  |
|   \\  /    A nd           | Website:  www.openfoam.com                      |
|    \\/     M anipulation  |                                                 |
\*---------------------------------------------------------------------------*/
FoamFile
{
    version     2.0;
    format      ascii;
    arch        "LSB;label=32;scalar=64";
    class       volVectorField;
    location    "0.3";
    object      U;
}
// * * * * * * * * * * * * * * * * * * * * * * * * * * * * * * * * * * * * * //

dimensions      [0 1 -1 0 0 0 0];

internalField   nonuniform List<vector> 
6250
(
(51.2225 0.00679037 0)
(85.5882 0.0309768 0)
(72.7256 0.0451798 0)
(60.0693 0.0488489 0)
(59.522 0.0500783 0)
(63.028 0.0533034 0)
(64.4694 0.0577063 0)
(63.9527 0.061426 0)
(63.3058 0.0640348 0)
(63.1849 0.0660797 0)
(63.3024 0.0679826 0)
(63.355 0.0697732 0)
(63.3121 0.0713587 0)
(63.2515 0.0727222 0)
(63.2121 0.073912 0)
(63.1858 0.0749736 0)
(63.1581 0.0759268 0)
(63.1257 0.0767798 0)
(63.092 0.0775422 0)
(63.0589 0.0782255 0)
(63.0264 0.0788405 0)
(62.9938 0.0793956 0)
(62.961 0.0798973 0)
(62.9281 0.0803512 0)
(62.8951 0.0807627 0)
(62.8621 0.0811362 0)
(62.8291 0.0814757 0)
(62.796 0.0817846 0)
(62.7629 0.0820659 0)
(62.7298 0.0823222 0)
(62.6967 0.0825559 0)
(62.6635 0.082769 0)
(62.6304 0.0829633 0)
(62.5972 0.0831406 0)
(62.564 0.0833021 0)
(62.5308 0.0834494 0)
(62.4976 0.0835834 0)
(62.4645 0.0837052 0)
(62.4313 0.0838158 0)
(62.3981 0.0839161 0)
(62.3649 0.0840068 0)
(62.3317 0.0840886 0)
(62.2985 0.0841621 0)
(62.2653 0.0842279 0)
(62.2322 0.0842865 0)
(62.199 0.0843384 0)
(62.1658 0.084384 0)
(62.1327 0.0844238 0)
(62.0995 0.0844581 0)
(62.0664 0.0844872 0)
(62.0332 0.0845115 0)
(62.0001 0.0845311 0)
(61.967 0.0845465 0)
(61.9338 0.0845578 0)
(61.9007 0.0845653 0)
(61.8676 0.0845691 0)
(61.8345 0.0845695 0)
(61.8014 0.0845667 0)
(61.7683 0.0845607 0)
(61.7352 0.0845519 0)
(61.7022 0.0845402 0)
(61.6691 0.0845259 0)
(61.636 0.0845091 0)
(61.603 0.0844898 0)
(61.57 0.0844683 0)
(61.5369 0.0844446 0)
(61.5039 0.0844188 0)
(61.4709 0.084391 0)
(61.4379 0.0843613 0)
(61.4049 0.0843298 0)
(61.3719 0.0842966 0)
(61.3389 0.0842616 0)
(61.3059 0.0842251 0)
(61.273 0.0841871 0)
(61.24 0.0841476 0)
(61.2071 0.0841067 0)
(61.1741 0.0840644 0)
(61.1412 0.0840208 0)
(61.1083 0.083976 0)
(61.0754 0.08393 0)
(61.0424 0.0838829 0)
(61.0096 0.0838346 0)
(60.9767 0.0837853 0)
(60.9438 0.0837349 0)
(60.9109 0.0836836 0)
(60.878 0.0836313 0)
(60.8452 0.0835782 0)
(60.8123 0.0835241 0)
(60.7795 0.0834692 0)
(60.7467 0.0834134 0)
(60.7139 0.0833569 0)
(60.681 0.0832996 0)
(60.6482 0.0832416 0)
(60.6154 0.0831829 0)
(60.5827 0.0831235 0)
(60.5499 0.0830634 0)
(60.5171 0.0830027 0)
(60.4843 0.0829414 0)
(60.4516 0.0828795 0)
(60.4189 0.0828171 0)
(60.3861 0.082754 0)
(60.3534 0.0826905 0)
(60.3207 0.0826264 0)
(60.288 0.0825618 0)
(60.2553 0.0824968 0)
(60.2226 0.0824312 0)
(60.1899 0.0823653 0)
(60.1572 0.0822989 0)
(60.1246 0.082232 0)
(60.0919 0.0821648 0)
(60.0592 0.0820971 0)
(60.0266 0.0820291 0)
(59.994 0.0819607 0)
(59.9614 0.0818919 0)
(59.9287 0.0818228 0)
(59.8961 0.0817534 0)
(59.8635 0.0816836 0)
(59.831 0.0816135 0)
(59.7984 0.0815431 0)
(59.7658 0.0814724 0)
(59.7332 0.0814014 0)
(59.7007 0.0813301 0)
(59.6681 0.0812586 0)
(59.6356 0.0811868 0)
(59.6031 0.0811147 0)
(59.5706 0.0810424 0)
(59.5381 0.0809698 0)
(59.5056 0.0808971 0)
(59.4731 0.080824 0)
(59.4406 0.0807508 0)
(59.4081 0.0806774 0)
(59.3756 0.0806037 0)
(59.3432 0.0805298 0)
(59.3107 0.0804558 0)
(59.2783 0.0803815 0)
(59.2459 0.0803071 0)
(59.2134 0.0802325 0)
(59.181 0.0801577 0)
(59.1486 0.0800827 0)
(59.1162 0.0800076 0)
(59.0839 0.0799323 0)
(59.0515 0.0798569 0)
(59.0191 0.0797813 0)
(58.9867 0.0797055 0)
(58.9544 0.0796297 0)
(58.9221 0.0795536 0)
(58.8897 0.0794775 0)
(58.8574 0.0794012 0)
(58.8251 0.0793247 0)
(58.7928 0.0792482 0)
(58.7605 0.0791715 0)
(58.7282 0.0790947 0)
(58.6959 0.0790177 0)
(58.6636 0.0789407 0)
(58.6314 0.0788637 0)
(58.5991 0.0787865 0)
(58.5669 0.0787092 0)
(58.5346 0.0786317 0)
(58.5024 0.0785542 0)
(58.4702 0.0784765 0)
(58.438 0.0783986 0)
(58.4058 0.0783207 0)
(58.3736 0.0782428 0)
(58.3414 0.0781648 0)
(58.3092 0.0780868 0)
(58.2771 0.0780088 0)
(58.2449 0.0779307 0)
(58.2128 0.0778524 0)
(58.1806 0.0777741 0)
(58.1485 0.0776955 0)
(58.1164 0.0776168 0)
(58.0843 0.077538 0)
(58.0522 0.0774592 0)
(58.0201 0.0773803 0)
(57.988 0.0773015 0)
(57.9559 0.0772228 0)
(57.9238 0.0771442 0)
(57.8918 0.0770655 0)
(57.8597 0.0769866 0)
(57.8277 0.0769076 0)
(57.7957 0.0768284 0)
(57.7636 0.0767489 0)
(57.7316 0.0766693 0)
(57.6996 0.0765897 0)
(57.6676 0.0765101 0)
(57.6356 0.0764306 0)
(57.6037 0.0763514 0)
(57.5717 0.0762722 0)
(57.5397 0.0761932 0)
(57.5078 0.076114 0)
(57.4758 0.0760347 0)
(57.4439 0.0759552 0)
(57.412 0.0758754 0)
(57.3801 0.0757953 0)
(57.3482 0.075715 0)
(57.3163 0.0756348 0)
(57.2844 0.0755546 0)
(57.2525 0.0754746 0)
(57.2206 0.0753949 0)
(57.1888 0.0753155 0)
(57.1569 0.0752362 0)
(57.1251 0.0751569 0)
(57.0933 0.0750776 0)
(57.0614 0.0749981 0)
(57.0296 0.0749183 0)
(56.9978 0.0748381 0)
(56.966 0.0747576 0)
(56.9342 0.074677 0)
(56.9024 0.0745964 0)
(56.8707 0.0745159 0)
(56.8389 0.0744357 0)
(56.8072 0.074356 0)
(56.7754 0.0742767 0)
(56.7437 0.0741979 0)
(56.712 0.0741192 0)
(56.6802 0.0740405 0)
(56.6485 0.0739616 0)
(56.6168 0.0738825 0)
(56.5852 0.0738029 0)
(56.5535 0.073723 0)
(56.5218 0.073643 0)
(56.4901 0.0735631 0)
(56.4585 0.0734837 0)
(56.4268 0.0734049 0)
(56.3952 0.073327 0)
(56.3635 0.07325 0)
(56.3319 0.0731739 0)
(56.3003 0.0730986 0)
(56.2687 0.0730238 0)
(56.2371 0.0729496 0)
(56.2055 0.072876 0)
(56.1739 0.072803 0)
(56.1423 0.0727311 0)
(56.1107 0.0726608 0)
(56.0791 0.0725928 0)
(56.0475 0.0725281 0)
(56.0159 0.0724677 0)
(55.9843 0.0724128 0)
(55.9527 0.0723649 0)
(55.9211 0.0723261 0)
(55.8895 0.0722992 0)
(55.8578 0.0722878 0)
(55.8261 0.0722988 0)
(55.7943 0.0723378 0)
(55.7625 0.0724279 0)
(55.7304 0.072557 0)
(55.6988 0.072857 0)
(55.6649 0.0730616 0)
(55.6383 0.0740768 0)
(55.5881 0.0736802 0)
(51.2398 0.0042333 0)
(85.6503 0.0218428 0)
(72.838 0.0355144 0)
(60.2228 0.0397828 0)
(59.7082 0.0400501 0)
(63.2489 0.0414801 0)
(64.7322 0.0442262 0)
(64.2622 0.0465339 0)
(63.6623 0.0477608 0)
(63.5877 0.0483918 0)
(63.7516 0.0489204 0)
(63.8515 0.0494259 0)
(63.8569 0.0498119 0)
(63.8449 0.0500461 0)
(63.8544 0.0501734 0)
(63.8772 0.0502415 0)
(63.8988 0.0502697 0)
(63.916 0.0502617 0)
(63.9318 0.050222 0)
(63.9485 0.0501587 0)
(63.9658 0.0500791 0)
(63.9832 0.0499881 0)
(64.0004 0.0498888 0)
(64.0174 0.0497839 0)
(64.0344 0.0496755 0)
(64.0515 0.0495655 0)
(64.0685 0.0494552 0)
(64.0855 0.0493457 0)
(64.1024 0.0492379 0)
(64.1193 0.0491324 0)
(64.1362 0.0490297 0)
(64.153 0.0489301 0)
(64.1698 0.048834 0)
(64.1866 0.0487415 0)
(64.2033 0.0486528 0)
(64.22 0.0485679 0)
(64.2366 0.0484868 0)
(64.2532 0.0484096 0)
(64.2698 0.0483363 0)
(64.2863 0.0482668 0)
(64.3027 0.048201 0)
(64.3191 0.0481389 0)
(64.3355 0.0480804 0)
(64.3519 0.0480254 0)
(64.3682 0.0479738 0)
(64.3844 0.0479256 0)
(64.4006 0.0478805 0)
(64.4168 0.0478386 0)
(64.4329 0.0477997 0)
(64.449 0.0477637 0)
(64.465 0.0477306 0)
(64.481 0.0477002 0)
(64.497 0.0476724 0)
(64.5129 0.0476471 0)
(64.5287 0.0476243 0)
(64.5445 0.0476039 0)
(64.5603 0.0475858 0)
(64.5761 0.0475699 0)
(64.5917 0.047556 0)
(64.6074 0.0475443 0)
(64.623 0.0475345 0)
(64.6385 0.0475265 0)
(64.6541 0.0475205 0)
(64.6695 0.0475161 0)
(64.685 0.0475135 0)
(64.7004 0.0475125 0)
(64.7157 0.0475131 0)
(64.731 0.0475152 0)
(64.7463 0.0475187 0)
(64.7615 0.0475237 0)
(64.7767 0.04753 0)
(64.7918 0.0475376 0)
(64.8069 0.0475464 0)
(64.8219 0.0475565 0)
(64.8369 0.0475678 0)
(64.8519 0.0475802 0)
(64.8668 0.0475936 0)
(64.8817 0.0476081 0)
(64.8965 0.0476236 0)
(64.9113 0.0476401 0)
(64.926 0.0476576 0)
(64.9407 0.0476759 0)
(64.9554 0.0476951 0)
(64.97 0.0477151 0)
(64.9846 0.047736 0)
(64.9991 0.0477577 0)
(65.0136 0.0477801 0)
(65.0281 0.0478032 0)
(65.0425 0.047827 0)
(65.0569 0.0478516 0)
(65.0712 0.0478767 0)
(65.0855 0.0479025 0)
(65.0997 0.047929 0)
(65.1139 0.047956 0)
(65.1281 0.0479836 0)
(65.1422 0.0480117 0)
(65.1563 0.0480404 0)
(65.1704 0.0480696 0)
(65.1843 0.0480993 0)
(65.1983 0.0481294 0)
(65.2122 0.0481601 0)
(65.2261 0.0481911 0)
(65.2399 0.0482227 0)
(65.2537 0.0482546 0)
(65.2675 0.048287 0)
(65.2812 0.0483197 0)
(65.2949 0.0483528 0)
(65.3085 0.0483863 0)
(65.3221 0.0484202 0)
(65.3356 0.0484543 0)
(65.3491 0.0484889 0)
(65.3626 0.0485237 0)
(65.376 0.0485589 0)
(65.3894 0.0485943 0)
(65.4028 0.0486301 0)
(65.4161 0.0486661 0)
(65.4293 0.0487025 0)
(65.4425 0.048739 0)
(65.4557 0.0487759 0)
(65.4689 0.048813 0)
(65.482 0.0488503 0)
(65.4951 0.0488878 0)
(65.5081 0.0489256 0)
(65.5211 0.0489636 0)
(65.534 0.0490019 0)
(65.5469 0.0490403 0)
(65.5598 0.0490789 0)
(65.5726 0.0491177 0)
(65.5854 0.0491567 0)
(65.5981 0.0491959 0)
(65.6109 0.0492353 0)
(65.6235 0.0492748 0)
(65.6362 0.0493145 0)
(65.6487 0.0493544 0)
(65.6613 0.0493944 0)
(65.6738 0.0494345 0)
(65.6863 0.0494748 0)
(65.6987 0.0495153 0)
(65.7111 0.0495559 0)
(65.7235 0.0495966 0)
(65.7358 0.0496374 0)
(65.7481 0.0496784 0)
(65.7603 0.0497195 0)
(65.7725 0.0497607 0)
(65.7847 0.049802 0)
(65.7968 0.0498434 0)
(65.8089 0.049885 0)
(65.8209 0.0499266 0)
(65.8329 0.0499683 0)
(65.8449 0.0500102 0)
(65.8568 0.0500521 0)
(65.8687 0.0500941 0)
(65.8806 0.0501361 0)
(65.8924 0.0501783 0)
(65.9042 0.0502206 0)
(65.9159 0.0502629 0)
(65.9276 0.0503053 0)
(65.9393 0.0503478 0)
(65.9509 0.0503904 0)
(65.9625 0.0504331 0)
(65.9741 0.0504758 0)
(65.9856 0.0505185 0)
(65.9971 0.0505613 0)
(66.0085 0.0506041 0)
(66.0199 0.050647 0)
(66.0313 0.0506899 0)
(66.0426 0.050733 0)
(66.0539 0.0507761 0)
(66.0651 0.0508193 0)
(66.0764 0.0508626 0)
(66.0875 0.0509059 0)
(66.0987 0.0509492 0)
(66.1098 0.0509925 0)
(66.1209 0.0510357 0)
(66.1319 0.051079 0)
(66.1429 0.0511223 0)
(66.1538 0.0511657 0)
(66.1647 0.0512092 0)
(66.1756 0.0512528 0)
(66.1865 0.0512965 0)
(66.1973 0.0513403 0)
(66.2081 0.051384 0)
(66.2188 0.0514277 0)
(66.2295 0.0514713 0)
(66.2402 0.0515149 0)
(66.2508 0.0515584 0)
(66.2614 0.051602 0)
(66.2719 0.0516456 0)
(66.2824 0.0516894 0)
(66.2929 0.0517332 0)
(66.3034 0.0517772 0)
(66.3138 0.0518212 0)
(66.3241 0.0518652 0)
(66.3345 0.0519092 0)
(66.3448 0.0519531 0)
(66.355 0.0519969 0)
(66.3653 0.0520407 0)
(66.3755 0.0520845 0)
(66.3856 0.0521282 0)
(66.3957 0.0521721 0)
(66.4058 0.052216 0)
(66.4159 0.0522601 0)
(66.4259 0.0523042 0)
(66.4358 0.0523484 0)
(66.4458 0.0523926 0)
(66.4557 0.0524368 0)
(66.4656 0.0524811 0)
(66.4754 0.0525253 0)
(66.4852 0.0525694 0)
(66.495 0.0526136 0)
(66.5047 0.0526577 0)
(66.5144 0.0527019 0)
(66.524 0.0527461 0)
(66.5337 0.0527905 0)
(66.5433 0.0528351 0)
(66.5528 0.0528799 0)
(66.5623 0.0529248 0)
(66.5718 0.05297 0)
(66.5813 0.0530154 0)
(66.5907 0.0530608 0)
(66.6001 0.0531064 0)
(66.6094 0.0531521 0)
(66.6187 0.053198 0)
(66.628 0.0532442 0)
(66.6372 0.0532908 0)
(66.6464 0.0533379 0)
(66.6556 0.0533858 0)
(66.6647 0.0534345 0)
(66.6738 0.0534842 0)
(66.6829 0.0535351 0)
(66.6919 0.0535873 0)
(66.7009 0.053641 0)
(66.7099 0.0536966 0)
(66.7189 0.0537544 0)
(66.7278 0.0538149 0)
(66.7366 0.0538791 0)
(66.7455 0.0539479 0)
(66.7543 0.0540225 0)
(66.763 0.0541049 0)
(66.7718 0.0541972 0)
(66.7805 0.0543024 0)
(66.7892 0.0544243 0)
(66.7979 0.0545689 0)
(66.8066 0.0547411 0)
(66.8153 0.0549586 0)
(66.824 0.0552096 0)
(66.8328 0.0555913 0)
(66.8421 0.0558885 0)
(66.8497 0.056764 0)
(66.8637 0.0565635 0)
(51.2382 0.000476515 0)
(85.638 0.00191015 0)
(72.8026 0.00345403 0)
(60.1682 0.00529789 0)
(59.6436 0.00688463 0)
(63.1762 0.00804831 0)
(64.6475 0.00894953 0)
(64.1623 0.0097251 0)
(63.5471 0.0104012 0)
(63.4583 0.0109847 0)
(63.6081 0.011506 0)
(63.6937 0.0119884 0)
(63.6842 0.0124373 0)
(63.6573 0.012854 0)
(63.6518 0.0132442 0)
(63.6595 0.0136146 0)
(63.666 0.013969 0)
(63.6681 0.0143088 0)
(63.6688 0.0146349 0)
(63.6703 0.0149487 0)
(63.6725 0.0152515 0)
(63.6747 0.0155442 0)
(63.6767 0.0158276 0)
(63.6785 0.0161022 0)
(63.6804 0.0163686 0)
(63.6824 0.0166272 0)
(63.6843 0.0168785 0)
(63.6862 0.0171229 0)
(63.6881 0.0173608 0)
(63.69 0.0175926 0)
(63.6919 0.0178185 0)
(63.6938 0.0180389 0)
(63.6957 0.018254 0)
(63.6977 0.0184641 0)
(63.6996 0.0186694 0)
(63.7015 0.0188703 0)
(63.7035 0.0190668 0)
(63.7054 0.0192592 0)
(63.7074 0.0194477 0)
(63.7093 0.0196325 0)
(63.7113 0.0198137 0)
(63.7133 0.0199915 0)
(63.7152 0.020166 0)
(63.7172 0.0203374 0)
(63.7192 0.0205058 0)
(63.7213 0.0206713 0)
(63.7233 0.0208341 0)
(63.7253 0.0209943 0)
(63.7274 0.0211519 0)
(63.7294 0.0213071 0)
(63.7315 0.0214599 0)
(63.7336 0.0216105 0)
(63.7357 0.0217589 0)
(63.7378 0.0219053 0)
(63.7399 0.0220496 0)
(63.742 0.0221919 0)
(63.7441 0.0223324 0)
(63.7463 0.022471 0)
(63.7484 0.0226079 0)
(63.7506 0.0227431 0)
(63.7528 0.0228767 0)
(63.755 0.0230087 0)
(63.7572 0.0231391 0)
(63.7594 0.0232681 0)
(63.7616 0.0233956 0)
(63.7638 0.0235217 0)
(63.7661 0.0236465 0)
(63.7683 0.0237699 0)
(63.7706 0.0238921 0)
(63.7729 0.024013 0)
(63.7752 0.0241327 0)
(63.7775 0.0242513 0)
(63.7798 0.0243687 0)
(63.7821 0.024485 0)
(63.7845 0.0246002 0)
(63.7868 0.0247144 0)
(63.7892 0.0248276 0)
(63.7916 0.0249398 0)
(63.7939 0.025051 0)
(63.7963 0.0251612 0)
(63.7988 0.0252706 0)
(63.8012 0.025379 0)
(63.8036 0.0254866 0)
(63.8061 0.0255934 0)
(63.8085 0.0256993 0)
(63.811 0.0258044 0)
(63.8135 0.0259086 0)
(63.8159 0.0260122 0)
(63.8185 0.0261149 0)
(63.821 0.026217 0)
(63.8235 0.0263183 0)
(63.826 0.0264189 0)
(63.8286 0.0265188 0)
(63.8311 0.026618 0)
(63.8337 0.0267165 0)
(63.8363 0.0268145 0)
(63.8389 0.0269117 0)
(63.8415 0.0270084 0)
(63.8441 0.0271044 0)
(63.8468 0.0271999 0)
(63.8494 0.0272947 0)
(63.852 0.027389 0)
(63.8547 0.0274827 0)
(63.8574 0.0275758 0)
(63.8601 0.0276685 0)
(63.8628 0.0277605 0)
(63.8655 0.0278521 0)
(63.8682 0.0279431 0)
(63.8709 0.0280336 0)
(63.8737 0.0281236 0)
(63.8764 0.0282132 0)
(63.8792 0.0283022 0)
(63.882 0.0283908 0)
(63.8848 0.0284789 0)
(63.8876 0.0285665 0)
(63.8904 0.0286537 0)
(63.8932 0.0287404 0)
(63.8961 0.0288267 0)
(63.8989 0.0289126 0)
(63.9018 0.028998 0)
(63.9046 0.029083 0)
(63.9075 0.0291676 0)
(63.9104 0.0292518 0)
(63.9133 0.0293355 0)
(63.9162 0.0294189 0)
(63.9192 0.0295019 0)
(63.9221 0.0295845 0)
(63.925 0.0296667 0)
(63.928 0.0297485 0)
(63.931 0.02983 0)
(63.934 0.029911 0)
(63.9369 0.0299917 0)
(63.94 0.0300721 0)
(63.943 0.0301521 0)
(63.946 0.0302317 0)
(63.949 0.030311 0)
(63.9521 0.0303899 0)
(63.9551 0.0304685 0)
(63.9582 0.0305468 0)
(63.9613 0.0306247 0)
(63.9644 0.0307023 0)
(63.9675 0.0307796 0)
(63.9706 0.0308565 0)
(63.9737 0.0309332 0)
(63.9769 0.0310095 0)
(63.98 0.0310854 0)
(63.9832 0.0311611 0)
(63.9863 0.0312365 0)
(63.9895 0.0313115 0)
(63.9927 0.0313863 0)
(63.9959 0.0314608 0)
(63.9991 0.031535 0)
(64.0023 0.0316088 0)
(64.0056 0.0316824 0)
(64.0088 0.0317556 0)
(64.0121 0.0318286 0)
(64.0153 0.0319012 0)
(64.0186 0.0319736 0)
(64.0219 0.0320458 0)
(64.0252 0.0321176 0)
(64.0285 0.0321893 0)
(64.0318 0.0322607 0)
(64.0351 0.0323318 0)
(64.0385 0.0324026 0)
(64.0418 0.0324731 0)
(64.0452 0.0325433 0)
(64.0486 0.0326131 0)
(64.052 0.0326827 0)
(64.0553 0.032752 0)
(64.0587 0.0328212 0)
(64.0622 0.0328902 0)
(64.0656 0.0329591 0)
(64.069 0.0330277 0)
(64.0725 0.0330961 0)
(64.0759 0.0331641 0)
(64.0794 0.0332318 0)
(64.0829 0.033299 0)
(64.0863 0.033366 0)
(64.0898 0.0334327 0)
(64.0933 0.0334992 0)
(64.0969 0.0335657 0)
(64.1004 0.033632 0)
(64.1039 0.0336983 0)
(64.1075 0.0337643 0)
(64.111 0.0338302 0)
(64.1146 0.0338957 0)
(64.1182 0.0339609 0)
(64.1218 0.0340256 0)
(64.1253 0.03409 0)
(64.129 0.0341541 0)
(64.1326 0.034218 0)
(64.1362 0.0342817 0)
(64.1398 0.0343454 0)
(64.1435 0.0344091 0)
(64.1471 0.0344727 0)
(64.1508 0.0345362 0)
(64.1545 0.0345995 0)
(64.1582 0.0346626 0)
(64.1619 0.0347253 0)
(64.1656 0.0347876 0)
(64.1693 0.0348496 0)
(64.173 0.0349112 0)
(64.1767 0.0349725 0)
(64.1805 0.0350337 0)
(64.1842 0.0350947 0)
(64.188 0.0351558 0)
(64.1918 0.0352169 0)
(64.1956 0.0352781 0)
(64.1994 0.0353393 0)
(64.2032 0.0354004 0)
(64.207 0.0354614 0)
(64.2108 0.035522 0)
(64.2146 0.0355823 0)
(64.2185 0.0356422 0)
(64.2223 0.0357017 0)
(64.2262 0.035761 0)
(64.23 0.0358201 0)
(64.2339 0.0358793 0)
(64.2378 0.0359387 0)
(64.2417 0.0359985 0)
(64.2456 0.0360586 0)
(64.2495 0.0361191 0)
(64.2535 0.0361798 0)
(64.2574 0.0362405 0)
(64.2613 0.0363013 0)
(64.2653 0.0363619 0)
(64.2693 0.0364226 0)
(64.2732 0.0364834 0)
(64.2772 0.0365446 0)
(64.2812 0.0366064 0)
(64.2852 0.0366693 0)
(64.2892 0.0367335 0)
(64.2932 0.0367993 0)
(64.2972 0.0368669 0)
(64.3013 0.0369367 0)
(64.3053 0.0370088 0)
(64.3094 0.0370836 0)
(64.3134 0.0371614 0)
(64.3175 0.0372429 0)
(64.3216 0.0373287 0)
(64.3257 0.0374197 0)
(64.3298 0.0375166 0)
(64.3339 0.0376199 0)
(64.3381 0.0377296 0)
(64.3423 0.0378429 0)
(64.3465 0.0379586 0)
(64.3507 0.0380545 0)
(64.3552 0.0381519 0)
(64.3587 0.0381028 0)
(64.3656 0.0381997 0)
(51.2406 0.000880878 0)
(85.645 0.00544346 0)
(72.8128 0.0105024 0)
(60.1781 0.014574 0)
(59.6513 0.0175377 0)
(63.1824 0.0198753 0)
(64.6533 0.0220135 0)
(64.1679 0.0240579 0)
(63.5523 0.0259146 0)
(63.4628 0.0275122 0)
(63.612 0.0288744 0)
(63.697 0.0300608 0)
(63.6871 0.0311083 0)
(63.6597 0.032029 0)
(63.6537 0.0328308 0)
(63.661 0.0335268 0)
(63.6671 0.0341323 0)
(63.6687 0.0346598 0)
(63.669 0.035119 0)
(63.67 0.0355179 0)
(63.6718 0.0358639 0)
(63.6736 0.0361638 0)
(63.6751 0.0364235 0)
(63.6766 0.0366479 0)
(63.6781 0.0368414 0)
(63.6796 0.0370079 0)
(63.6812 0.0371507 0)
(63.6827 0.0372728 0)
(63.6842 0.0373767 0)
(63.6857 0.0374648 0)
(63.6872 0.0375389 0)
(63.6887 0.0376008 0)
(63.6902 0.0376521 0)
(63.6917 0.0376941 0)
(63.6932 0.0377279 0)
(63.6947 0.0377546 0)
(63.6963 0.0377751 0)
(63.6978 0.0377902 0)
(63.6993 0.0378005 0)
(63.7008 0.0378068 0)
(63.7023 0.0378095 0)
(63.7038 0.0378091 0)
(63.7053 0.0378061 0)
(63.7069 0.0378008 0)
(63.7084 0.0377935 0)
(63.7099 0.0377846 0)
(63.7114 0.0377743 0)
(63.713 0.0377628 0)
(63.7145 0.0377503 0)
(63.716 0.0377369 0)
(63.7176 0.0377229 0)
(63.7191 0.0377084 0)
(63.7207 0.0376935 0)
(63.7222 0.0376782 0)
(63.7238 0.0376627 0)
(63.7253 0.0376471 0)
(63.7269 0.0376314 0)
(63.7284 0.0376157 0)
(63.73 0.0376 0)
(63.7315 0.0375844 0)
(63.7331 0.0375689 0)
(63.7346 0.0375536 0)
(63.7362 0.0375384 0)
(63.7378 0.0375235 0)
(63.7393 0.0375087 0)
(63.7409 0.0374942 0)
(63.7425 0.03748 0)
(63.7441 0.037466 0)
(63.7456 0.0374523 0)
(63.7472 0.0374389 0)
(63.7488 0.0374257 0)
(63.7504 0.0374129 0)
(63.752 0.0374003 0)
(63.7536 0.0373881 0)
(63.7551 0.0373761 0)
(63.7567 0.0373645 0)
(63.7583 0.0373531 0)
(63.7599 0.0373421 0)
(63.7615 0.0373313 0)
(63.7631 0.0373209 0)
(63.7647 0.0373107 0)
(63.7663 0.0373008 0)
(63.7679 0.0372912 0)
(63.7695 0.0372819 0)
(63.7711 0.0372729 0)
(63.7728 0.0372641 0)
(63.7744 0.0372557 0)
(63.776 0.0372474 0)
(63.7776 0.0372395 0)
(63.7792 0.0372318 0)
(63.7809 0.0372243 0)
(63.7825 0.0372171 0)
(63.7841 0.0372102 0)
(63.7857 0.0372035 0)
(63.7874 0.037197 0)
(63.789 0.0371908 0)
(63.7906 0.0371848 0)
(63.7923 0.037179 0)
(63.7939 0.0371735 0)
(63.7955 0.0371681 0)
(63.7972 0.037163 0)
(63.7988 0.0371581 0)
(63.8005 0.0371534 0)
(63.8021 0.037149 0)
(63.8038 0.0371447 0)
(63.8054 0.0371406 0)
(63.8071 0.0371367 0)
(63.8087 0.037133 0)
(63.8104 0.0371295 0)
(63.812 0.0371262 0)
(63.8137 0.037123 0)
(63.8154 0.03712 0)
(63.817 0.0371173 0)
(63.8187 0.0371147 0)
(63.8204 0.0371122 0)
(63.822 0.0371099 0)
(63.8237 0.0371078 0)
(63.8254 0.0371059 0)
(63.8271 0.0371041 0)
(63.8287 0.0371025 0)
(63.8304 0.037101 0)
(63.8321 0.0370997 0)
(63.8338 0.0370986 0)
(63.8355 0.0370976 0)
(63.8371 0.0370967 0)
(63.8388 0.037096 0)
(63.8405 0.0370954 0)
(63.8422 0.037095 0)
(63.8439 0.0370947 0)
(63.8456 0.0370946 0)
(63.8473 0.0370946 0)
(63.849 0.0370947 0)
(63.8507 0.037095 0)
(63.8524 0.0370954 0)
(63.8541 0.0370959 0)
(63.8558 0.0370965 0)
(63.8575 0.0370973 0)
(63.8592 0.0370982 0)
(63.861 0.0370992 0)
(63.8627 0.0371004 0)
(63.8644 0.0371016 0)
(63.8661 0.037103 0)
(63.8678 0.0371045 0)
(63.8696 0.0371062 0)
(63.8713 0.0371079 0)
(63.873 0.0371098 0)
(63.8747 0.0371117 0)
(63.8765 0.0371138 0)
(63.8782 0.0371159 0)
(63.8799 0.0371182 0)
(63.8817 0.0371206 0)
(63.8834 0.0371231 0)
(63.8852 0.0371257 0)
(63.8869 0.0371285 0)
(63.8886 0.0371313 0)
(63.8904 0.0371343 0)
(63.8921 0.0371373 0)
(63.8939 0.0371404 0)
(63.8956 0.0371435 0)
(63.8974 0.0371468 0)
(63.8991 0.0371501 0)
(63.9009 0.0371536 0)
(63.9027 0.0371572 0)
(63.9044 0.037161 0)
(63.9062 0.0371649 0)
(63.908 0.0371689 0)
(63.9097 0.0371729 0)
(63.9115 0.037177 0)
(63.9133 0.037181 0)
(63.915 0.0371851 0)
(63.9168 0.0371893 0)
(63.9186 0.0371935 0)
(63.9204 0.037198 0)
(63.9221 0.0372027 0)
(63.9239 0.0372075 0)
(63.9257 0.0372125 0)
(63.9275 0.0372175 0)
(63.9293 0.0372226 0)
(63.9311 0.0372276 0)
(63.9329 0.0372325 0)
(63.9347 0.0372374 0)
(63.9365 0.0372424 0)
(63.9383 0.0372475 0)
(63.9401 0.0372528 0)
(63.9419 0.0372583 0)
(63.9437 0.0372641 0)
(63.9455 0.03727 0)
(63.9473 0.037276 0)
(63.9491 0.0372821 0)
(63.9509 0.0372881 0)
(63.9527 0.037294 0)
(63.9545 0.0372999 0)
(63.9564 0.0373057 0)
(63.9582 0.0373116 0)
(63.96 0.0373176 0)
(63.9618 0.0373237 0)
(63.9637 0.0373301 0)
(63.9655 0.0373368 0)
(63.9673 0.0373437 0)
(63.9691 0.0373507 0)
(63.971 0.0373578 0)
(63.9728 0.037365 0)
(63.9747 0.0373721 0)
(63.9765 0.0373791 0)
(63.9783 0.0373861 0)
(63.9802 0.037393 0)
(63.982 0.0373999 0)
(63.9839 0.037407 0)
(63.9857 0.0374142 0)
(63.9876 0.0374218 0)
(63.9894 0.0374297 0)
(63.9913 0.037438 0)
(63.9932 0.0374466 0)
(63.995 0.0374555 0)
(63.9969 0.0374644 0)
(63.9987 0.0374734 0)
(64.0006 0.0374823 0)
(64.0025 0.0374911 0)
(64.0043 0.0375 0)
(64.0062 0.037509 0)
(64.0081 0.0375184 0)
(64.01 0.0375283 0)
(64.0118 0.0375388 0)
(64.0137 0.03755 0)
(64.0156 0.037562 0)
(64.0175 0.0375747 0)
(64.0194 0.0375881 0)
(64.0213 0.0376022 0)
(64.0232 0.0376168 0)
(64.0251 0.0376321 0)
(64.0269 0.0376482 0)
(64.0288 0.0376654 0)
(64.0307 0.037684 0)
(64.0326 0.0377042 0)
(64.0345 0.0377265 0)
(64.0364 0.0377512 0)
(64.0384 0.0377786 0)
(64.0403 0.037809 0)
(64.0422 0.0378426 0)
(64.0441 0.0378795 0)
(64.046 0.0379198 0)
(64.048 0.0379635 0)
(64.0499 0.03801 0)
(64.0519 0.0380589 0)
(64.0538 0.038108 0)
(64.0558 0.0381569 0)
(64.0578 0.038195 0)
(64.0599 0.0382377 0)
(64.0615 0.0382207 0)
(64.0646 0.0382967 0)
(51.2416 0.00060733 0)
(85.6469 0.00323956 0)
(72.8131 0.00569706 0)
(60.1762 0.00737175 0)
(59.6483 0.00852228 0)
(63.1791 0.00951453 0)
(64.6497 0.010474 0)
(64.1639 0.0113524 0)
(63.5478 0.0120879 0)
(63.4579 0.0126785 0)
(63.6068 0.0131616 0)
(63.6917 0.0135719 0)
(63.6816 0.0139244 0)
(63.6541 0.0142239 0)
(63.648 0.0144759 0)
(63.6553 0.0146892 0)
(63.6613 0.0148722 0)
(63.663 0.015031 0)
(63.6633 0.01517 0)
(63.6644 0.0152926 0)
(63.6662 0.0154019 0)
(63.6681 0.0155008 0)
(63.6697 0.0155914 0)
(63.6713 0.0156755 0)
(63.6728 0.0157545 0)
(63.6745 0.0158295 0)
(63.6761 0.0159016 0)
(63.6777 0.0159715 0)
(63.6793 0.0160398 0)
(63.6809 0.0161071 0)
(63.6825 0.0161738 0)
(63.6841 0.0162402 0)
(63.6857 0.0163066 0)
(63.6873 0.0163731 0)
(63.6889 0.0164399 0)
(63.6905 0.0165072 0)
(63.6921 0.016575 0)
(63.6936 0.0166434 0)
(63.6952 0.0167124 0)
(63.6968 0.0167821 0)
(63.6984 0.0168524 0)
(63.7 0.0169234 0)
(63.7016 0.016995 0)
(63.7032 0.0170673 0)
(63.7048 0.0171402 0)
(63.7065 0.0172136 0)
(63.7081 0.0172877 0)
(63.7097 0.0173622 0)
(63.7113 0.0174373 0)
(63.7129 0.0175129 0)
(63.7145 0.0175888 0)
(63.7161 0.0176652 0)
(63.7177 0.017742 0)
(63.7193 0.0178191 0)
(63.721 0.0178965 0)
(63.7226 0.0179741 0)
(63.7242 0.0180521 0)
(63.7258 0.0181302 0)
(63.7274 0.0182086 0)
(63.7291 0.0182871 0)
(63.7307 0.0183658 0)
(63.7323 0.0184446 0)
(63.734 0.0185234 0)
(63.7356 0.0186024 0)
(63.7372 0.0186814 0)
(63.7389 0.0187605 0)
(63.7405 0.0188396 0)
(63.7422 0.0189187 0)
(63.7438 0.0189978 0)
(63.7454 0.0190769 0)
(63.7471 0.0191559 0)
(63.7487 0.0192348 0)
(63.7504 0.0193137 0)
(63.7521 0.0193926 0)
(63.7537 0.0194713 0)
(63.7554 0.0195499 0)
(63.757 0.0196284 0)
(63.7587 0.0197068 0)
(63.7604 0.0197851 0)
(63.762 0.0198632 0)
(63.7637 0.0199412 0)
(63.7654 0.0200191 0)
(63.767 0.0200967 0)
(63.7687 0.0201742 0)
(63.7704 0.0202516 0)
(63.7721 0.0203287 0)
(63.7738 0.0204057 0)
(63.7754 0.0204825 0)
(63.7771 0.020559 0)
(63.7788 0.0206354 0)
(63.7805 0.0207116 0)
(63.7822 0.0207876 0)
(63.7839 0.0208633 0)
(63.7856 0.0209389 0)
(63.7873 0.0210142 0)
(63.789 0.0210893 0)
(63.7907 0.0211642 0)
(63.7924 0.0212389 0)
(63.7941 0.0213133 0)
(63.7958 0.0213875 0)
(63.7975 0.0214615 0)
(63.7992 0.0215352 0)
(63.801 0.0216087 0)
(63.8027 0.021682 0)
(63.8044 0.021755 0)
(63.8061 0.0218278 0)
(63.8078 0.0219004 0)
(63.8096 0.0219727 0)
(63.8113 0.0220447 0)
(63.813 0.0221165 0)
(63.8148 0.0221881 0)
(63.8165 0.0222594 0)
(63.8182 0.0223305 0)
(63.82 0.0224013 0)
(63.8217 0.0224719 0)
(63.8234 0.0225422 0)
(63.8252 0.0226123 0)
(63.8269 0.0226821 0)
(63.8287 0.0227517 0)
(63.8304 0.022821 0)
(63.8322 0.0228901 0)
(63.8339 0.0229589 0)
(63.8357 0.0230275 0)
(63.8374 0.0230958 0)
(63.8392 0.0231639 0)
(63.841 0.0232317 0)
(63.8427 0.0232993 0)
(63.8445 0.0233666 0)
(63.8463 0.0234337 0)
(63.848 0.0235005 0)
(63.8498 0.0235671 0)
(63.8516 0.0236335 0)
(63.8534 0.0236995 0)
(63.8551 0.0237654 0)
(63.8569 0.023831 0)
(63.8587 0.0238963 0)
(63.8605 0.0239614 0)
(63.8623 0.0240263 0)
(63.864 0.0240909 0)
(63.8658 0.0241553 0)
(63.8676 0.0242194 0)
(63.8694 0.0242832 0)
(63.8712 0.0243469 0)
(63.873 0.0244103 0)
(63.8748 0.0244735 0)
(63.8766 0.0245364 0)
(63.8784 0.0245991 0)
(63.8802 0.0246615 0)
(63.882 0.0247237 0)
(63.8838 0.0247857 0)
(63.8856 0.0248474 0)
(63.8874 0.0249088 0)
(63.8893 0.0249701 0)
(63.8911 0.0250311 0)
(63.8929 0.0250919 0)
(63.8947 0.0251525 0)
(63.8965 0.0252128 0)
(63.8984 0.025273 0)
(63.9002 0.0253329 0)
(63.902 0.0253925 0)
(63.9038 0.0254518 0)
(63.9057 0.0255109 0)
(63.9075 0.0255698 0)
(63.9093 0.0256285 0)
(63.9112 0.025687 0)
(63.913 0.0257453 0)
(63.9148 0.0258034 0)
(63.9167 0.0258614 0)
(63.9185 0.0259191 0)
(63.9204 0.0259766 0)
(63.9222 0.0260337 0)
(63.924 0.0260905 0)
(63.9259 0.0261471 0)
(63.9277 0.0262035 0)
(63.9296 0.0262596 0)
(63.9314 0.0263157 0)
(63.9333 0.0263717 0)
(63.9352 0.0264275 0)
(63.937 0.0264831 0)
(63.9389 0.0265386 0)
(63.9407 0.0265937 0)
(63.9426 0.0266485 0)
(63.9445 0.026703 0)
(63.9463 0.0267572 0)
(63.9482 0.0268111 0)
(63.9501 0.026865 0)
(63.952 0.0269187 0)
(63.9538 0.0269723 0)
(63.9557 0.0270258 0)
(63.9576 0.0270792 0)
(63.9595 0.0271325 0)
(63.9613 0.0271855 0)
(63.9632 0.0272382 0)
(63.9651 0.0272906 0)
(63.967 0.0273427 0)
(63.9689 0.0273946 0)
(63.9708 0.0274463 0)
(63.9727 0.0274977 0)
(63.9745 0.0275491 0)
(63.9764 0.0276003 0)
(63.9783 0.0276515 0)
(63.9802 0.0277026 0)
(63.9821 0.0277536 0)
(63.984 0.0278046 0)
(63.9859 0.0278553 0)
(63.9878 0.0279059 0)
(63.9897 0.0279562 0)
(63.9916 0.0280062 0)
(63.9936 0.028056 0)
(63.9955 0.0281055 0)
(63.9974 0.0281549 0)
(63.9993 0.0282042 0)
(64.0012 0.0282536 0)
(64.0031 0.028303 0)
(64.005 0.0283525 0)
(64.0069 0.0284022 0)
(64.0089 0.0284519 0)
(64.0108 0.0285016 0)
(64.0127 0.0285513 0)
(64.0146 0.0286008 0)
(64.0166 0.0286501 0)
(64.0185 0.0286995 0)
(64.0204 0.0287488 0)
(64.0223 0.0287983 0)
(64.0243 0.0288481 0)
(64.0262 0.0288984 0)
(64.0281 0.0289493 0)
(64.0301 0.0290008 0)
(64.032 0.029053 0)
(64.034 0.0291059 0)
(64.0359 0.0291594 0)
(64.0378 0.0292136 0)
(64.0398 0.0292686 0)
(64.0417 0.0293244 0)
(64.0437 0.0293813 0)
(64.0456 0.0294394 0)
(64.0476 0.0294989 0)
(64.0495 0.02956 0)
(64.0515 0.0296228 0)
(64.0535 0.0296873 0)
(64.0554 0.0297532 0)
(64.0574 0.0298201 0)
(64.0594 0.0298873 0)
(64.0614 0.0299538 0)
(64.0634 0.030018 0)
(64.0654 0.0300784 0)
(64.0674 0.030132 0)
(64.0695 0.0301781 0)
(64.0711 0.0302085 0)
(64.0743 0.0302387 0)
(51.2426 0.000486388 0)
(85.6493 0.00274514 0)
(72.8159 0.00508821 0)
(60.1789 0.00697166 0)
(59.6508 0.00855745 0)
(63.1816 0.0100793 0)
(64.6522 0.0115842 0)
(64.1664 0.0130178 0)
(63.5502 0.0143387 0)
(63.4602 0.0155469 0)
(63.6091 0.0166595 0)
(63.6939 0.017688 0)
(63.6837 0.0186364 0)
(63.6561 0.0195067 0)
(63.65 0.0203035 0)
(63.6571 0.0210327 0)
(63.6631 0.0217001 0)
(63.6646 0.022311 0)
(63.6649 0.0228697 0)
(63.6659 0.0233806 0)
(63.6676 0.0238478 0)
(63.6694 0.024275 0)
(63.6709 0.0246659 0)
(63.6724 0.0250236 0)
(63.6739 0.0253511 0)
(63.6754 0.0256512 0)
(63.677 0.0259261 0)
(63.6785 0.0261783 0)
(63.68 0.0264098 0)
(63.6815 0.0266223 0)
(63.6831 0.0268177 0)
(63.6846 0.0269974 0)
(63.6861 0.0271628 0)
(63.6877 0.0273152 0)
(63.6892 0.0274557 0)
(63.6907 0.0275854 0)
(63.6923 0.0277051 0)
(63.6938 0.0278159 0)
(63.6954 0.0279184 0)
(63.6969 0.0280132 0)
(63.6985 0.0281012 0)
(63.7 0.0281828 0)
(63.7016 0.0282585 0)
(63.7031 0.0283289 0)
(63.7047 0.0283943 0)
(63.7062 0.0284552 0)
(63.7078 0.028512 0)
(63.7094 0.0285648 0)
(63.711 0.0286141 0)
(63.7125 0.0286601 0)
(63.7141 0.0287031 0)
(63.7157 0.0287432 0)
(63.7173 0.0287807 0)
(63.7189 0.0288158 0)
(63.7204 0.0288486 0)
(63.722 0.0288793 0)
(63.7236 0.0289081 0)
(63.7252 0.028935 0)
(63.7268 0.0289603 0)
(63.7284 0.0289839 0)
(63.73 0.0290061 0)
(63.7316 0.0290269 0)
(63.7332 0.0290464 0)
(63.7349 0.0290647 0)
(63.7365 0.0290819 0)
(63.7381 0.029098 0)
(63.7397 0.029113 0)
(63.7413 0.0291272 0)
(63.743 0.0291404 0)
(63.7446 0.0291529 0)
(63.7462 0.0291645 0)
(63.7479 0.0291754 0)
(63.7495 0.0291856 0)
(63.7511 0.0291952 0)
(63.7528 0.0292042 0)
(63.7544 0.0292125 0)
(63.7561 0.0292204 0)
(63.7577 0.0292277 0)
(63.7594 0.0292345 0)
(63.761 0.0292409 0)
(63.7627 0.0292468 0)
(63.7644 0.0292524 0)
(63.766 0.0292576 0)
(63.7677 0.0292624 0)
(63.7693 0.0292668 0)
(63.771 0.029271 0)