/*--------------------------------*- C++ -*----------------------------------*\
| =========                 |                                                 |
| \\      /  F ield         | OpenFOAM: The Open Source CFD Toolbox           |
|  \\    /   O peration     | Version:  2406                                  |
|   \\  /    A nd           | Website:  www.openfoam.com                      |
|    \\/     M anipulation  |                                                 |
\*---------------------------------------------------------------------------*/
FoamFile
{
    version     2.0;
    format      ascii;
    arch        "LSB;label=32;scalar=64";
    class       surfaceScalarField;
    location    "1.85";
    object      alphaPhi0.air;
}
// * * * * * * * * * * * * * * * * * * * * * * * * * * * * * * * * * * * * * //

dimensions      [0 3 -1 0 0 0 0];

oriented        oriented;

internalField   nonuniform List<scalar> 
12225
(
0.511113
1.70622e-06
0.511107
5.69362e-06
0.511101
6.67819e-06
0.511096
4.85097e-06
0.511092
4.21383e-06
0.511087
4.90455e-06
0.511081
5.45113e-06
0.511076
5.86879e-06
0.51107
6.02288e-06
0.511064
5.38782e-06
0.511059
5.13723e-06
0.511053
5.64208e-06
0.511048
5.74673e-06
0.511042
5.57842e-06
0.511036
5.63584e-06
0.511031
5.48507e-06
0.511026
5.13383e-06
0.511021
5.15383e-06
0.511015
5.51534e-06
0.511009
5.64724e-06
0.511004
5.67649e-06
0.510998
5.71599e-06
0.510993
5.35239e-06
0.510988
4.905e-06
0.510983
4.88006e-06
0.510978
5.20802e-06
0.510972
5.54493e-06
0.510967
5.54429e-06
0.510961
5.40863e-06
0.510956
5.68303e-06
0.510949
6.08193e-06
0.510944
5.94406e-06
0.510938
5.63115e-06
0.510932
5.48924e-06
0.510927
5.3144e-06
0.510922
5.12855e-06
0.510917
4.96591e-06
0.510912
4.98777e-06
0.510907
5.23208e-06
0.510901
5.55469e-06
0.510895
5.80449e-06
0.510889
5.90534e-06
0.510884
5.94449e-06
0.510878
5.76248e-06
0.510872
5.43268e-06
0.510867
5.23013e-06
0.510862
5.08116e-06
0.510857
5.10938e-06
0.510852
5.29424e-06
0.510846
5.5641e-06
0.51084
5.75836e-06
0.510835
5.53867e-06
0.510829
5.37515e-06
0.510824
5.604e-06
0.510818
5.64263e-06
0.510813
5.48103e-06
0.510807
5.43751e-06
0.510802
5.25833e-06
0.510797
5.20747e-06
0.510791
5.42673e-06
0.510786
5.3421e-06
0.510781
5.15797e-06
0.510776
5.20585e-06
0.51077
5.23493e-06
0.510765
5.2453e-06
0.51076
5.44624e-06
0.510754
5.75035e-06
0.510748
5.88732e-06
0.510742
5.90076e-06
0.510736
5.79564e-06
0.510731
5.43562e-06
0.510726
4.99261e-06
0.510721
4.6667e-06
0.510717
4.67625e-06
0.510712
5.09546e-06
0.510706
5.63052e-06
0.5107
6.03203e-06
0.510694
6.09307e-06
0.510688
5.71148e-06
0.510683
5.37991e-06
0.510677
5.4371e-06
0.510672
5.4919e-06
0.510666
5.42769e-06
0.510661
5.41536e-06
0.510655
5.41994e-06
0.51065
5.46495e-06
0.510645
5.44951e-06
0.510639
5.31126e-06
0.510634
5.24092e-06
0.510629
5.30629e-06
0.510623
5.35019e-06
0.510618
5.28735e-06
0.510613
5.3517e-06
0.510607
5.50922e-06
0.510602
5.37991e-06
0.510597
5.04442e-06
0.510592
4.99979e-06
0.510586
5.4022e-06
0.510581
5.80513e-06
0.510575
5.77675e-06
0.510569
5.43765e-06
0.510564
5.10734e-06
0.510559
4.95217e-06
0.510554
5.01909e-06
0.510549
5.25708e-06
0.510544
5.48697e-06
0.510538
5.65423e-06
0.510532
5.65946e-06
0.510527
5.38102e-06
0.510522
5.26453e-06
0.510516
5.63952e-06
0.51051
6.01876e-06
0.510504
6.04504e-06
0.510498
5.92558e-06
0.510492
5.71777e-06
0.510487
5.41928e-06
0.510481
5.39386e-06
0.510476
5.66928e-06
0.51047
5.76445e-06
0.510464
5.5967e-06
0.510459
5.46068e-06
0.510454
5.36271e-06
0.510448
5.14888e-06
0.510443
4.93938e-06
0.510439
4.92281e-06
0.510433
5.14017e-06
0.510428
5.51174e-06
0.510422
5.85114e-06
0.510416
6.0815e-06
0.51041
6.07287e-06
0.510404
5.71487e-06
0.510399
5.37213e-06
0.510394
5.26058e-06
0.510388
5.1769e-06
0.510383
5.12744e-06
0.510378
5.21343e-06
0.510373
5.38818e-06
0.510367
5.49624e-06
0.510362
5.43722e-06
0.510356
5.45896e-06
0.510351
5.70774e-06
0.510345
5.92015e-06
0.510339
5.95418e-06
0.510333
5.81666e-06
0.510327
5.45644e-06
0.510322
5.12085e-06
0.510317
5.15103e-06
0.510312
5.4465e-06
0.510306
5.73929e-06
0.5103
5.81131e-06
0.510295
5.50498e-06
0.51029
5.09196e-06
0.510285
4.89765e-06
0.51028
4.98569e-06
0.510274
5.26259e-06
0.510269
5.43612e-06
0.510263
5.48243e-06
0.510258
5.57247e-06
0.510252
5.59831e-06
0.510247
5.56602e-06
0.510241
5.62343e-06
0.510235
5.74801e-06
0.51023
5.78023e-06
0.510224
5.65977e-06
0.510218
5.43438e-06
0.510213
5.04953e-06
0.510209
4.70355e-06
0.510204
4.78969e-06
0.510199
5.3098e-06
0.510193
5.88528e-06
0.510187
6.13704e-06
0.510181
6.03982e-06
0.510175
5.76989e-06
0.510169
5.44258e-06
0.510164
5.13732e-06
0.510159
4.97728e-06
0.510154
5.16689e-06
0.510148
5.60672e-06
0.510143
5.8576e-06
0.510137
5.62935e-06
0.510132
5.15795e-06
0.510127
4.98485e-06
0.510122
5.14144e-06
0.510116
5.29828e-06
0.510111
5.42977e-06
0.510105
5.61521e-06
0.5101
5.71552e-06
0.510094
5.54468e-06
0.510089
5.3148e-06
0.510084
5.21555e-06
0.510078
5.18025e-06
0.510073
5.42604e-06
0.510067
5.83187e-06
0.510061
6.00527e-06
0.510055
6.00268e-06
0.510049
5.81256e-06
0.510044
5.53452e-06
0.510038
5.46259e-06
0.510033
5.51585e-06
0.510027
5.64326e-06
0.510021
5.71796e-06
0.510016
5.47367e-06
0.510011
5.29017e-06
0.510005
5.5229e-06
0.509999
5.77192e-06
0.509994
5.82765e-06
0.509988
5.86373e-06
0.509982
5.85063e-06
0.509976
5.65362e-06
0.509971
5.33296e-06
0.509966
5.24972e-06
0.50996
5.44808e-06
0.509955
5.45956e-06
0.509949
5.2949e-06
0.509944
5.23718e-06
0.509939
5.22807e-06
0.509934
5.24537e-06
0.509928
5.19517e-06
0.509923
5.18884e-06
0.509918
5.63828e-06
0.509911
6.16142e-06
0.509905
6.17642e-06
0.509899
5.91135e-06
0.509894
5.48186e-06
0.509889
4.80867e-06
0.509885
4.31277e-06
0.50988
4.35782e-06
0.509876
4.75399e-06
0.50987
5.22196e-06
0.509865
5.58102e-06
0.509859
5.60491e-06
0.509854
5.46194e-06
0.509848
5.4786e-06
0.509843
5.5284e-06
0.509837
5.60912e-06
0.509831
5.80358e-06
0.509826
5.70984e-06
0.50982
5.31076e-06
0.509815
5.0299e-06
0.50981
4.91285e-06
0.509805
5.01122e-06
0.5098
5.48554e-06
0.509794
6.05318e-06
0.509788
6.25446e-06
0.509782
6.02721e-06
0.509776
5.61652e-06
0.509771
5.38395e-06
0.509765
5.52392e-06
0.509759
6.29158e-06
5.71981e-06
0.511119
-2.34972e-07
0.511124
3.90598e-07
0.511129
1.62642e-06
0.511131
2.84934e-06
0.511133
3.11087e-06
0.511135
2.63516e-06
0.511138
2.33639e-06
0.511142
2.25595e-06
0.511145
2.10508e-06
0.511149
2.02904e-06
0.511152
2.21322e-06
0.511155
2.41044e-06
0.511158
2.52407e-06
0.511161
2.53779e-06
0.511164
2.48749e-06
0.511167
2.52882e-06
0.51117
2.438e-06
0.511173
2.12834e-06
0.511176
2.23166e-06
0.511179
2.62289e-06
0.511182
2.75894e-06
0.511185
2.69567e-06
0.511188
2.56269e-06
0.511191
2.47241e-06
0.511193
2.61554e-06
0.511195
2.77181e-06
0.511198
2.53422e-06
0.511201
2.37093e-06
0.511204
2.67748e-06
0.511207
2.59219e-06
0.511211
2.2079e-06
0.511215
2.33314e-06
0.511218
2.55589e-06
0.511221
2.56668e-06
0.511223
2.56863e-06
0.511226
2.61206e-06
0.511228
2.72061e-06
0.51123
2.78334e-06
0.511233
2.6024e-06
0.511237
2.07466e-06
0.511241
1.63846e-06
0.511245
1.73442e-06
0.511249
2.17497e-06
0.511252
2.60674e-06
0.511255
2.75167e-06
0.511257
2.51113e-06
0.51126
2.38548e-06
0.511263
2.51922e-06
0.511265
2.56707e-06
0.511268
2.4923e-06
0.511272
2.51561e-06
0.511274
2.71469e-06
0.511277
2.86277e-06
0.51128
2.59446e-06
0.511283
2.3176e-06
0.511286
2.34688e-06
0.511289
2.39327e-06
0.511292
2.57941e-06
0.511295
2.7887e-06
0.511297
2.60748e-06
0.5113
2.23544e-06
0.511303
2.20565e-06
0.511306
2.60103e-06
0.511308
3.06981e-06
0.51131
3.22098e-06
0.511313
2.92905e-06
0.511316
2.6085e-06
0.511319
2.37469e-06
0.511323
1.97512e-06
0.511327
1.95581e-06
0.51133
2.57387e-06
0.511332
3.15955e-06
0.511333
3.2522e-06
0.511335
2.91022e-06
0.511338
2.39156e-06
0.511341
1.99621e-06
0.511345
1.91783e-06
0.511349
2.17614e-06
0.511352
2.59139e-06
0.511355
2.78647e-06
0.511358
2.66475e-06
0.511361
2.43312e-06
0.511364
2.15795e-06
0.511368
1.93946e-06
0.511371
1.8421e-06
0.511375
1.86883e-06
0.511378
2.12474e-06
0.511381
2.5011e-06
0.511384
2.63885e-06
0.511386
2.49133e-06
0.511389
2.59458e-06
0.511391
3.04185e-06
0.511394
3.19847e-06
0.511396
2.96915e-06
0.511399
2.82825e-06
0.511401
2.82915e-06
0.511403
2.65301e-06
0.511406
2.33797e-06
0.51141
2.14165e-06
0.511414
2.17337e-06
0.511417
2.33143e-06
0.511419
2.47818e-06
0.511422
2.56848e-06
0.511424
2.47996e-06
0.511427
2.21188e-06
0.51143
2.2039e-06
0.511434
2.49718e-06
0.511437
2.65775e-06
0.511439
2.59387e-06
0.511442
2.49025e-06
0.511445
2.44178e-06
0.511449
2.47497e-06
0.511452
2.58877e-06
0.511456
2.83233e-06
0.511458
3.26197e-06
0.51146
3.39866e-06
0.511463
2.80484e-06
0.511466
1.9998e-06
0.51147
1.63541e-06
0.511474
1.74781e-06
0.511478
2.1611e-06
0.51148
2.65678e-06
0.511482
3.06714e-06
0.511484
3.18364e-06
0.511486
2.83709e-06
0.511489
2.2327e-06
0.511493
1.89067e-06
0.511496
2.03611e-06
0.5115
2.32529e-06
0.511504
2.54887e-06
0.511507
2.79134e-06
0.511509
2.92948e-06
0.511512
2.90077e-06
0.511514
2.77332e-06
0.511516
2.54654e-06
0.511519
2.37879e-06
0.511522
2.33912e-06
0.511526
2.24855e-06
0.511529
2.07021e-06
0.511532
1.945e-06
0.511536
1.9591e-06
0.51154
2.15639e-06
0.511543
2.51109e-06
0.511546
2.80619e-06
0.511549
2.85247e-06
0.511552
2.6377e-06
0.511554
2.24097e-06
0.511558
1.92923e-06
0.511562
1.85278e-06
0.511566
1.90449e-06
0.511569
2.04264e-06
0.511572
2.33018e-06
0.511574
2.64661e-06
0.511577
2.71466e-06
0.511579
2.56914e-06
0.511582
2.5277e-06
0.511585
2.63954e-06
0.511588
2.65791e-06
0.511591
2.4835e-06
0.511594
2.41653e-06
0.511597
2.55152e-06
0.5116
2.57172e-06
0.511604
2.47942e-06
0.511607
2.51864e-06
0.51161
2.70459e-06
0.511612
2.78769e-06
0.511614
2.57341e-06
0.511616
2.32832e-06
0.511619
2.31746e-06
0.511623
2.3503e-06
0.511627
2.2657e-06
0.511631
2.29786e-06
0.511634
2.5477e-06
0.511637
2.72271e-06
0.511639
2.67589e-06
0.511641
2.53405e-06
0.511644
2.50813e-06
0.511647
2.65066e-06
0.51165
2.69524e-06
0.511653
2.58676e-06
0.511656
2.55217e-06
0.511658
2.60108e-06
0.511661
2.57395e-06
0.511664
2.4481e-06
0.511667
2.2785e-06
0.51167
2.18948e-06
0.511673
2.44023e-06
0.511676
2.85203e-06
0.511679
2.9903e-06
0.511681
2.86957e-06
0.511684
2.52435e-06
0.511687
2.12624e-06
0.51169
2.17496e-06
0.511694
2.57982e-06
0.511697
2.90729e-06
0.5117
3.0457e-06
0.511702
2.89067e-06
0.511705
2.52743e-06
0.511709
2.19704e-06
0.511712
2.05357e-06
0.511716
2.28343e-06
0.511718
2.73128e-06
0.511721
2.95737e-06
0.511723
2.80164e-06
0.511727
2.39228e-06
0.511731
2.13411e-06
0.511734
2.28213e-06
0.511738
2.41929e-06
0.511741
2.33672e-06
0.511744
2.31691e-06
0.511747
2.26752e-06
0.51175
2.11907e-06
0.511754
2.08307e-06
0.511757
2.1937e-06
0.511759
2.55621e-06
0.511762
3.08381e-06
0.511764
3.23367e-06
0.511766
2.89707e-06
0.511769
2.49692e-06
0.511772
2.21898e-06
0.511776
2.08411e-06
0.51178
2.14029e-06
0.511784
2.36859e-06
0.511786
2.60727e-06
0.511789
2.73254e-06
0.51179
2.78039e-06
0.511792
2.87343e-06
0.511793
2.99058e-06
0.511796
2.93232e-06
0.511799
2.66207e-06
0.511802
2.46034e-06
0.511805
2.47937e-06
0.511808
2.62329e-06
0.51181
2.76315e-06
0.511813
2.87756e-06
0.511816
2.97002e-06
0.511818
3.04069e-06
0.511821
3.0591e-06
0.511823
2.83426e-06
0.511825
2.48086e-06
0.511828
2.42846e-06
0.511831
2.59086e-06
0.511834
2.68252e-06
0.511838
2.71316e-06
0.511841
2.684e-06
0.511844
2.60073e-06
0.511847
2.47891e-06
0.51185
2.19579e-06
0.511855
1.85425e-06
2.16361e-06
0.511117
7.76756e-08
0.511117
8.29443e-07
0.511117
1.49317e-06
0.511118
1.95474e-06
0.511119
2.13753e-06
0.511119
2.22567e-06
0.51112
2.09534e-06
0.51112
1.76144e-06
0.511121
1.77797e-06
0.51112
2.10447e-06
0.51112
2.20374e-06
0.511121
2.19184e-06
0.511121
2.26966e-06
0.511121
2.21327e-06
0.511122
2.0488e-06
0.511122
2.11066e-06
0.511122
2.30856e-06
0.511122
2.36941e-06
0.511122
2.41767e-06
0.511122
2.44744e-06
0.511122
2.36121e-06
0.511123
2.17698e-06
0.511123
2.22625e-06
0.511123
2.77968e-06
0.511122
3.1384e-06
0.511123
2.62369e-06
0.511123
1.81677e-06
0.511124
1.50544e-06
0.511125
2.00329e-06
0.511125
2.78922e-06
0.511124
2.97045e-06
0.511124
2.538e-06
0.511124
2.09664e-06
0.511125
1.98493e-06
0.511125
1.87059e-06
0.511126
1.68566e-06
0.511127
1.95776e-06
0.511128
2.34521e-06
0.511128
2.22411e-06
0.511128
1.90231e-06
0.511128
1.7759e-06
0.511128
1.86539e-06
0.511128
2.30103e-06
0.511128
2.68478e-06
0.511128
2.49923e-06
0.511128
2.13745e-06
0.511129
1.84811e-06
0.511129
1.81483e-06
0.51113
2.16086e-06
0.51113
2.40268e-06
0.51113
2.68722e-06
0.51113
2.98703e-06
0.51113
2.77168e-06
0.51113
2.45827e-06
0.51113
2.35248e-06
0.51113
2.11166e-06
0.51113
2.03082e-06
0.511131
2.27309e-06
0.511131
2.13886e-06
0.511132
1.9151e-06
0.511132
2.16773e-06
0.511132
2.43906e-06
0.511132
2.72732e-06
0.511132
3.02099e-06
0.511132
2.99232e-06
0.511132
2.85605e-06
0.511132
2.70843e-06
0.511132
2.36489e-06
0.511132
1.91506e-06
0.511132
1.75268e-06
0.511133
1.97637e-06
0.511134
2.28306e-06
0.511134
2.45993e-06
0.511135
2.52526e-06
0.511135
2.69328e-06
0.511134
2.68635e-06
0.511134
2.20691e-06
0.511134
1.74956e-06
0.511135
1.71876e-06
0.511136
1.82672e-06
0.511137
1.83911e-06
0.511137
1.88666e-06
0.511137
1.88218e-06
0.511138
1.73985e-06
0.511138
1.64308e-06
0.511138
1.63344e-06
0.511138
1.89832e-06
0.511138
2.43587e-06
0.511138
2.67052e-06
0.511138
2.43863e-06
0.511139
2.18697e-06
0.51114
2.18436e-06
0.51114
2.52481e-06
0.51114
3.02145e-06
0.51114
3.1131e-06
0.51114
2.90191e-06
0.51114
2.77629e-06
0.51114
2.4726e-06
0.51114
1.92753e-06
0.511141
1.48463e-06
0.511142
1.3456e-06
0.511142
1.60194e-06
0.511143
1.96081e-06
0.511143
2.07378e-06
0.511143
2.17703e-06
0.511143
2.39536e-06
0.511143
2.37166e-06
0.511144
2.2518e-06
0.511144
2.32011e-06
0.511144
2.40605e-06
0.511144
2.44037e-06
0.511144
2.35432e-06
0.511145
2.18781e-06
0.511145
2.2007e-06
0.511146
2.44676e-06
0.511147
2.84607e-06
0.511146
3.05227e-06
0.511146
2.72756e-06
0.511145
2.21601e-06
0.511145
1.89209e-06
0.511145
1.68636e-06
0.511146
1.67012e-06
0.511148
1.98997e-06
0.511148
2.434e-06
0.511148
2.7281e-06
0.511148
2.70101e-06
0.511147
2.44626e-06
0.511147
2.29131e-06
0.511147
2.23128e-06
0.511148
2.16187e-06
0.511148
2.14489e-06
0.511149
2.10716e-06
0.51115
2.06194e-06
0.511151
2.18275e-06
0.511151
2.43286e-06
0.51115
2.61398e-06
0.51115
2.60815e-06
0.51115
2.44141e-06
0.51115
2.16316e-06
0.51115
1.85479e-06
0.51115
1.74945e-06
0.51115
1.88762e-06
0.511151
1.90034e-06
0.511152
1.71605e-06
0.511153
1.62175e-06
0.511154
1.66027e-06
0.511155
1.86276e-06
0.511154
2.15271e-06
0.511154
2.13298e-06
0.511154
1.82934e-06
0.511155
1.65026e-06
0.511155
1.77706e-06
0.511156
2.20175e-06
0.511156
2.56261e-06
0.511156
2.47694e-06
0.511156
2.26173e-06
0.511157
2.28129e-06
0.511157
2.36476e-06
0.511157
2.4212e-06
0.511157
2.52526e-06
0.511157
2.51506e-06
0.511157
2.34273e-06
0.511157
2.10343e-06
0.511158
1.84254e-06
0.511159
1.80461e-06
0.51116
1.94951e-06
0.51116
2.02537e-06
0.51116
2.2441e-06
0.51116
2.51789e-06
0.51116
2.43904e-06
0.51116
2.14851e-06
0.511161
1.99116e-06
0.511161
2.01546e-06
0.511162
2.15323e-06
0.511162
2.36994e-06
0.511162
2.62771e-06
0.511162
2.82924e-06
0.511161
2.80289e-06
0.511162
2.54151e-06
0.511162
2.34794e-06
0.511162
2.31406e-06
0.511162
2.36106e-06
0.511162
2.47528e-06
0.511162
2.53551e-06
0.511162
2.50411e-06
0.511162
2.37757e-06
0.511162
2.25033e-06
0.511163
2.28041e-06
0.511163
2.31681e-06
0.511164
2.32112e-06
0.511164
2.38017e-06
0.511164
2.42982e-06
0.511163
2.50828e-06
0.511163
2.60779e-06
0.511164
2.62961e-06
0.511164
2.50469e-06
0.511165
2.27787e-06
0.511165
2.14781e-06
0.511165
2.06872e-06
0.511165
1.90416e-06
0.511166
1.87652e-06
0.511166
2.18275e-06
0.511167
2.50063e-06
0.511167
2.4588e-06
0.511167
2.27656e-06
0.511167
2.26616e-06
0.511167
2.21384e-06
0.511168
1.90182e-06
0.511168
1.67302e-06
0.511169
1.77515e-06
0.511169
1.928e-06
0.511169
1.99186e-06
0.51117
1.96678e-06
0.51117
1.85895e-06
0.511171
1.89705e-06
0.511172
2.08297e-06
0.511172
2.32295e-06
0.511173
2.67211e-06
0.511172
2.88054e-06
0.511172
2.77291e-06
0.511171
2.56685e-06
0.511171
2.33844e-06
0.511171
2.08464e-06
0.511172
1.96102e-06
0.511173
2.09236e-06
0.511173
2.42971e-06
0.511173
2.74252e-06
0.511173
2.81737e-06
0.511174
2.65764e-06
0.511174
2.45927e-06
0.511174
2.43058e-06
0.511174
2.58806e-06
0.511173
2.85147e-06
0.511173
3.03337e-06
0.511173
2.85969e-06
0.511174
2.49073e-06
0.511174
2.30926e-06
0.511175
2.30532e-06
0.511176
2.38284e-06
0.511176
2.54923e-06
0.511175
2.68822e-06
0.511175
2.60194e-06
0.511176
2.31853e-06
0.511176
2.10948e-06
0.511177
2.10804e-06
0.511177
2.34603e-06
0.511177
2.56669e-06
0.511177
2.39529e-06
0.511177
2.01787e-06
1.9256e-06
0.511117
3.0131e-07
0.511117
8.50777e-07
0.511117
1.24547e-06
0.511118
1.32451e-06
0.511118
1.34167e-06
0.511119
1.43725e-06
0.51112
1.52082e-06
0.51112
1.72423e-06
0.51112
1.77657e-06
0.51112
1.80816e-06
0.51112
1.96549e-06
0.511121
1.9716e-06
0.511121
1.81282e-06
0.511122
1.55234e-06
0.511122
1.60062e-06
0.511122
1.97221e-06
0.511122
2.21291e-06
0.511122
2.43797e-06
0.511122
2.47562e-06
0.511122
2.33978e-06
0.511122
2.25072e-06
0.511123
2.03185e-06
0.511123
2.08208e-06
0.511123
2.38381e-06
0.511124
2.43948e-06
0.511124
2.32973e-06
0.511124
2.31525e-06
0.511123
2.38154e-06
0.511123
2.2226e-06
0.511123
2.04369e-06
0.511124
2.09188e-06
0.511125
2.09007e-06
0.511125
1.88994e-06
0.511125
1.67267e-06
0.511125
1.54786e-06
0.511126
1.56651e-06
0.511126
1.61178e-06
0.511127
1.49503e-06
0.511127
1.57017e-06
0.511128
1.78042e-06
0.511127
1.95283e-06
0.511127
2.18253e-06
0.511127
2.09539e-06
0.511128
1.92875e-06
0.511129
1.9789e-06
0.511129
1.81622e-06
0.511129
1.62921e-06
0.511129
1.7181e-06
0.51113
1.77326e-06
0.51113
1.83567e-06
0.511131
2.17728e-06
0.511131
2.46432e-06
0.511131
2.55678e-06
0.511132
2.32893e-06
0.511132
1.74118e-06
0.511133
1.74217e-06
0.511133
2.00761e-06
0.511133
1.70307e-06
0.511134
1.55666e-06
0.511134
1.765e-06
0.511134
2.01455e-06
0.511134
2.48505e-06
0.511134
2.93011e-06
0.511134
2.98433e-06
0.511134
2.85438e-06
0.511134
2.56002e-06
0.511135
2.07693e-06
0.511135
1.97222e-06
0.511135
2.24907e-06
0.511134
2.40013e-06
0.511134
2.39448e-06
0.511134
2.25799e-06
0.511134
1.95741e-06
0.511135
1.65171e-06
0.511136
1.69613e-06
0.511137
2.00604e-06
0.511137
2.10063e-06
0.511137
1.95198e-06
0.511137
1.68429e-06
0.511137
1.41935e-06
0.511138
1.28316e-06
0.511138
1.34492e-06
0.511139
1.59399e-06
0.511139
1.69349e-06
0.511139
1.60726e-06
0.511139
1.66266e-06
0.511139
1.92917e-06
0.511139
2.24997e-06
0.511139
2.50315e-06
0.511139
2.49363e-06
0.511139
2.35796e-06
0.511139
2.42439e-06
0.511139
2.51184e-06
0.511139
2.50682e-06
0.51114
2.53943e-06
0.51114
2.52081e-06
0.51114
2.46895e-06
0.511141
2.29848e-06
0.511141
1.8938e-06
0.51114
1.60757e-06
0.51114
1.61196e-06
0.51114
1.56385e-06
0.511141
1.39736e-06
0.511141
1.40867e-06
0.511142
1.62574e-06
0.511143
1.82891e-06
0.511143
1.94128e-06
0.511143
2.09625e-06
0.511143
2.18301e-06
0.511144
1.93841e-06
0.511144
1.78195e-06
0.511145
2.02296e-06
0.511145
2.30955e-06
0.511144
2.5415e-06
0.511144
2.61633e-06
0.511145
2.41481e-06
0.511145
2.14034e-06
0.511146
1.96177e-06
0.511146
1.99529e-06
0.511146
2.17676e-06
0.511146
2.15246e-06
0.511145
1.91304e-06
0.511146
1.73385e-06
0.511146
1.73612e-06
0.511147
1.99988e-06
0.511148
2.30828e-06
0.511148
2.30497e-06
0.511148
2.24255e-06
0.511148
2.30392e-06
0.511148
2.22835e-06
0.511148
2.09834e-06
0.511148
1.95967e-06
0.511148
1.73685e-06
0.511148
1.7696e-06
0.511149
1.98159e-06
0.51115
1.96643e-06
0.51115
1.93972e-06
0.511151
2.0065e-06
0.511151
1.89863e-06
0.511151
1.68017e-06
0.511151
1.49447e-06
0.511152
1.47291e-06
0.511152
1.68662e-06
0.511152
1.66902e-06
0.511152
1.23775e-06
0.511153
1.01102e-06
0.511154
1.24921e-06
0.511154
1.54595e-06
0.511155
1.71028e-06
0.511155
1.71474e-06
0.511155
1.57928e-06
0.511155
1.55137e-06
0.511156
1.73254e-06
0.511156
2.0133e-06
0.511156
2.27452e-06
0.511156
2.33903e-06
0.511156
2.2052e-06
0.511157
2.0879e-06
0.511157
2.05871e-06
0.511157
2.05508e-06
0.511158
2.06315e-06
0.511158
2.05755e-06
0.511158
2.01405e-06
0.511158
1.94967e-06
0.511158
1.8607e-06
0.511158
1.77417e-06
0.511159
1.77937e-06
0.511159
1.84835e-06
0.51116
1.84604e-06
0.51116
1.81892e-06
0.511161
1.8691e-06
0.511161
1.92937e-06
0.511161
1.97e-06
0.511161
2.02731e-06
0.511161
2.12747e-06
0.511161
2.28276e-06
0.511162
2.40231e-06
0.511162
2.38945e-06
0.511162
2.2857e-06
0.511163
2.26e-06
0.511163
2.33305e-06
0.511163
2.35018e-06
0.511163
2.28033e-06
0.511163
2.21883e-06
0.511163
2.25042e-06
0.511163
2.29913e-06
0.511163
2.27413e-06
0.511163
2.2016e-06
0.511164
2.04042e-06
0.511164
1.91468e-06
0.511164
2.05592e-06
0.511164
2.39103e-06
0.511164
2.67922e-06
0.511164
2.72458e-06
0.511164
2.51542e-06
0.511165
2.20316e-06
0.511165
1.9248e-06
0.511165
1.81348e-06
0.511165
1.92288e-06
0.511165
2.1433e-06
0.511165
2.34424e-06
0.511165
2.40176e-06
0.511165
2.13905e-06
0.511166
1.73091e-06
0.511166
1.60174e-06
0.511167
1.69472e-06
0.511167
1.78632e-06
0.511167
1.8241e-06
0.511167
1.78185e-06
0.511167
1.7482e-06
0.511168
1.62827e-06
0.511168
1.43687e-06
0.511168
1.59481e-06
0.511168
1.98263e-06
0.511168
2.08535e-06
0.511168
1.93717e-06
0.511169
1.84178e-06
0.51117
1.89655e-06
0.51117
2.0451e-06
0.511171
2.12911e-06
0.511171
2.13633e-06
0.511172
2.17471e-06
0.511172
2.17401e-06
0.511171
2.16949e-06
0.511171
2.30906e-06
0.511171
2.47594e-06
0.511171
2.50454e-06
0.511172
2.37289e-06
0.511172
2.18973e-06
0.511173
2.14404e-06
0.511173
2.23078e-06
0.511173
2.40278e-06
0.511173
2.68253e-06
0.511173
2.83375e-06
0.511173
2.72571e-06
0.511173
2.53429e-06
0.511174
2.21472e-06
0.511174
1.9213e-06
0.511174
2.08962e-06
0.511174
2.43226e-06
0.511174
2.51899e-06
0.511175
2.50376e-06
0.511174
2.39352e-06
0.511174
2.16257e-06
0.511175
1.9689e-06
0.511175
1.76952e-06
0.511176
1.59847e-06
0.511177
1.68499e-06
0.511177
1.86492e-06
1.92796e-06
0.511118
2.66268e-07
0.511118
6.87209e-07
0.511118
8.66287e-07
0.511119
1.10618e-06
0.511119
1.27721e-06
0.511119
1.20138e-06
0.511119
1.35495e-06
0.511119
1.50217e-06
0.511119
1.56829e-06
0.51112
1.59529e-06
0.51112
1.39448e-06
0.511121
1.19156e-06
0.511121
1.32849e-06
0.511121
1.54428e-06
0.511121
1.84277e-06
0.511121
2.10517e-06
0.511121
2.22294e-06
0.511121
2.36917e-06
0.511122
2.11872e-06
0.511122
1.49437e-06
0.511123
1.2657e-06
0.511124
1.62152e-06
0.511124
2.16787e-06
0.511124
2.45327e-06
0.511124
2.34624e-06
0.511124
2.10959e-06
0.511124
2.18562e-06
0.511124
2.29623e-06
0.511124
2.26216e-06
0.511124
2.33325e-06
0.511124
1.92828e-06
0.511125
1.23383e-06
0.511126
9.97041e-07
0.511126
1.11347e-06
0.511126
1.36523e-06
0.511126
1.57293e-06
0.511126
1.83762e-06
0.511126
1.9988e-06
0.511125
1.83766e-06
0.511125
1.73176e-06
0.511126
1.78185e-06
0.511126
1.79252e-06
0.511127
1.56781e-06
0.511127
1.18366e-06
0.511128
1.01894e-06
0.511129
1.20845e-06
0.511129
1.63023e-06
0.511129
1.90131e-06
0.511129
1.92003e-06
0.511129
1.87659e-06
0.511129
1.82857e-06
0.51113
1.74029e-06
0.51113
1.71155e-06
0.511131
2.02976e-06
0.51113
2.34382e-06
0.51113
2.24587e-06
0.51113
2.0406e-06
0.511129
1.81503e-06
0.51113
1.50467e-06
0.51113
1.49441e-06
0.51113
1.88946e-06
0.51113
2.20186e-06
0.511131
2.33737e-06
0.511131
2.44795e-06
0.511132
2.46766e-06
0.511132
2.38277e-06
0.511132
2.02585e-06
0.511132
1.65207e-06
0.511133
1.67957e-06
0.511133
2.07675e-06
0.511133
2.51122e-06
0.511133
2.36382e-06
0.511133
1.83402e-06
0.511133
1.59697e-06
0.511133
1.54056e-06
0.511134
1.4325e-06
0.511135
1.25942e-06
0.511136
1.13807e-06
0.511136
1.17832e-06
0.511136
1.23252e-06
0.511136
1.23689e-06
0.511136
1.22054e-06
0.511137
1.11169e-06
0.511137
1.10009e-06
0.511138
1.37692e-06
0.511138
1.67037e-06
0.511138
1.83537e-06
0.511138
1.9835e-06
0.511138
2.09666e-06
0.511139
2.24141e-06
0.511139
2.26006e-06
0.511139
2.15696e-06
0.511139
2.32619e-06
0.511139
2.5552e-06
0.511139
2.39444e-06
0.51114
2.0947e-06
0.51114
1.98187e-06
0.511141
1.84712e-06
0.511141
1.59698e-06
0.511141
1.43718e-06
0.511141
1.37778e-06
0.511142
1.40501e-06
0.511141
1.56417e-06
0.511141
1.67313e-06
0.511141
1.53321e-06
0.511142
1.37128e-06
0.511142
1.42298e-06
0.511143
1.52601e-06
0.511143
1.60344e-06
0.511144
1.58338e-06
0.511144
1.43749e-06
0.511145
1.56288e-06
0.511145
2.1502e-06
0.511144
2.72943e-06
0.511144
2.77429e-06
0.511144
2.33768e-06
0.511145
1.80468e-06
0.511145
1.44942e-06
0.511146
1.39167e-06
0.511146
1.54077e-06
0.511147
1.74165e-06
0.511147
1.87794e-06
0.511147
1.87292e-06
0.511147
1.77169e-06
0.511147
1.69083e-06
0.511148
1.72322e-06
0.511148
1.80296e-06
0.511149
1.83607e-06
0.511149
1.87219e-06
0.511149
1.9012e-06
0.51115
1.8732e-06
0.51115
1.8435e-06
0.51115
1.83062e-06
0.51115
1.79604e-06
0.51115
1.7878e-06
0.51115
1.74541e-06
0.51115
1.52727e-06
0.511151
1.36166e-06
0.511152
1.39406e-06
0.511152
1.35357e-06
0.511152
1.27899e-06
0.511152
1.33638e-06
0.511153
1.30265e-06
0.511153
1.15679e-06
0.511153
1.16627e-06
0.511153
1.29104e-06
0.511153
1.29142e-06
0.511153
1.11638e-06
0.511154
1.00493e-06
0.511155
1.18933e-06
0.511155
1.52649e-06
0.511154
1.72251e-06
0.511154
1.73718e-06
0.511155
1.77446e-06
0.511155
1.94439e-06
0.511155
2.0224e-06
0.511156
1.91508e-06
0.511156
1.86281e-06
0.511156
1.91542e-06
0.511156
1.89513e-06
0.511156
1.71914e-06
0.511157
1.56027e-06
0.511157
1.63666e-06
0.511158
1.71496e-06
0.511158
1.60736e-06
0.511158
1.61982e-06
0.511158
1.77769e-06
0.511158
1.75877e-06
0.511158
1.4988e-06
0.511159
1.26636e-06
0.511159
1.36275e-06
0.51116
1.65938e-06
0.51116
1.843e-06
0.51116
1.92992e-06
0.51116
2.02187e-06
0.51116
2.14301e-06
0.51116
2.31062e-06
0.51116
2.35145e-06
0.51116
2.17236e-06
0.511161
2.07112e-06
0.511161
2.13274e-06
0.511161
2.12537e-06
0.511161
2.04502e-06
0.511161
2.01288e-06
0.511162
2.12329e-06
0.511162
2.27435e-06
0.511162
2.24769e-06
0.511162
2.07422e-06
0.511162
1.79236e-06
0.511162
1.60978e-06
0.511163
1.81625e-06
0.511163
2.18266e-06
0.511163
2.45392e-06
0.511163
2.53891e-06
0.511163
2.35047e-06
0.511164
2.03793e-06
0.511164
1.73202e-06
0.511164
1.54027e-06
0.511164
1.69987e-06
0.511164
2.08799e-06
0.511164
2.23224e-06
0.511165
2.03638e-06
0.511165
1.79771e-06
0.511165
1.66064e-06
0.511165
1.5474e-06
0.511166
1.33623e-06
0.511166
1.13941e-06
0.511167
1.19817e-06
0.511167
1.39536e-06
0.511167
1.48445e-06
0.511168
1.42846e-06
0.511168
1.35455e-06
0.511168
1.42124e-06
0.511168
1.56111e-06
0.511169
1.66202e-06
0.511169
1.74399e-06
0.511169
1.76156e-06
0.511169
1.66791e-06
0.51117
1.57307e-06
0.51117
1.6071e-06
0.511171
1.73494e-06
0.511171
1.8641e-06
0.511171
1.94341e-06
0.511171
2.00367e-06
0.511172
2.14442e-06
0.511172
2.28801e-06
0.511172
2.27613e-06
0.511172
2.2158e-06
0.511172
2.23305e-06
0.511172
2.29503e-06
0.511172
2.42777e-06
0.511172
2.46639e-06
0.511172
2.16303e-06
0.511173
1.88443e-06
0.511174
1.97068e-06
0.511174
2.08804e-06
0.511174
2.13937e-06
0.511174
2.27286e-06
0.511174
2.34935e-06
0.511174
2.24658e-06
0.511174
2.03004e-06
0.511175
2.02274e-06
0.511175
2.27578e-06
0.511175
2.39176e-06
0.511175
2.13811e-06
0.511175
1.64898e-06
0.511175
1.40296e-06
0.511175
1.52068e-06
0.511175
1.60363e-06
1.59085e-06
0.511118
-3.83977e-08
0.511119
7.78139e-08
0.511119
5.44535e-07
0.511119
1.07721e-06
0.511119
8.69878e-07
0.51112
9.64737e-07
0.51112
1.32576e-06
0.51112
1.28029e-06
0.51112
1.07158e-06
0.511121
9.18094e-07
0.511121
8.88965e-07
0.511122
9.42535e-07
0.511122
1.03532e-06
0.511122
1.6008e-06
0.511121
2.35615e-06
0.511121
2.6478e-06
0.511121
2.53806e-06
0.511121
2.01554e-06
0.511122
1.29501e-06
0.511122
1.05465e-06
0.511122
1.31297e-06
0.511122
1.75232e-06
0.511122
1.98852e-06
0.511123
1.57903e-06
0.511124
1.23976e-06
0.511125
1.4868e-06
0.511125
1.87943e-06
0.511125
2.19549e-06
0.511125
2.0483e-06
0.511126
1.61284e-06
0.511126
1.55206e-06
0.511126
1.63653e-06
0.511126
1.51212e-06
0.511125
1.28269e-06
0.511126
1.25615e-06
0.511126
1.38071e-06
0.511126
1.43026e-06
0.511127
1.59982e-06
0.511127
1.78627e-06
0.511127
1.78648e-06
0.511127
1.68181e-06
0.511127
1.54471e-06
0.511127
1.29076e-06
0.511127
9.87949e-07
0.511127
8.65071e-07
0.511128
9.07907e-07
0.511128
9.2067e-07
0.511129
8.96529e-07
0.51113
1.1043e-06
0.511131
1.50503e-06
0.511131
1.56267e-06
0.511131
1.49578e-06
0.511131
1.68514e-06
0.511132
1.71155e-06
0.511132
1.58115e-06
0.511133
1.81487e-06
0.511133
1.90172e-06
0.511133
1.57173e-06
0.511133
1.57245e-06
0.511133
1.80967e-06
0.511133
1.98958e-06
0.511133
2.31872e-06
0.511132
2.48864e-06
0.511133
2.29903e-06
0.511133
2.08321e-06
0.511133
2.03964e-06
0.511133
1.83991e-06
0.511133
1.60757e-06
0.511133
1.81387e-06
0.511133
1.95381e-06
0.511134
1.72377e-06
0.511135
1.616e-06
0.511135
1.67735e-06
0.511135
1.65892e-06
0.511135
1.40871e-06
0.511136
1.0845e-06
0.511136
1.10753e-06
0.511136
1.20265e-06
0.511136
9.61493e-07
0.511136
8.47014e-07
0.511136
9.92367e-07
0.511137
9.38033e-07
0.511137
8.70018e-07
0.511137
9.65315e-07
0.511137
1.26773e-06
0.511137
1.85433e-06
0.511137
2.12552e-06
0.511137
1.82539e-06
0.511137
1.598e-06
0.511138
1.70675e-06
0.511138
1.82681e-06
0.511139
1.91216e-06
0.511139
2.03677e-06
0.511139
2.12991e-06
0.51114
2.25023e-06
0.511139
2.20999e-06
0.51114
1.86185e-06
0.51114
1.51211e-06
0.51114
1.36143e-06
0.51114
1.30239e-06
0.51114
1.30438e-06
0.51114
1.39247e-06
0.51114
1.3935e-06
0.511141
1.29526e-06
0.511141
1.22603e-06
0.511141
1.09905e-06
0.511142
9.75125e-07
0.511142
1.00638e-06
0.511143
1.05624e-06
0.511143
1.03846e-06
0.511144
1.0598e-06
0.511144
1.28019e-06
0.511145
1.74158e-06
0.511145
2.28604e-06
0.511145
2.51494e-06
0.511145
2.28261e-06
0.511145
1.947e-06
0.511145
1.72088e-06
0.511145
1.55222e-06
0.511145
1.43789e-06
0.511145
1.4197e-06
0.511146
1.50515e-06
0.511146
1.60322e-06
0.511146
1.65238e-06
0.511146
1.68881e-06
0.511146
1.69755e-06
0.511146
1.65323e-06
0.511146
1.57335e-06
0.511147
1.44148e-06
0.511147
1.29109e-06
0.511148
1.30751e-06
0.511148
1.47041e-06
0.511149
1.59896e-06
0.511149
1.59166e-06
0.511149
1.43046e-06
0.51115
1.35298e-06
0.51115
1.46298e-06
0.51115
1.39047e-06
0.51115
1.11677e-06
0.51115
1.00911e-06
0.51115
1.0919e-06
0.511151
1.09362e-06
0.511151
8.47524e-07
0.511152
5.95733e-07
0.511152
7.04948e-07
0.511152
9.89349e-07
0.511153
1.14484e-06
0.511153
1.09489e-06
0.511153
8.46826e-07
0.511153
7.69544e-07