/*--------------------------------*- C++ -*----------------------------------*\
| =========                 |                                                 |
| \\      /  F ield         | OpenFOAM: The Open Source CFD Toolbox           |
|  \\    /   O peration     | Version:  2406                                  |
|   \\  /    A nd           | Website:  www.openfoam.com                      |
|    \\/     M anipulation  |                                                 |
\*---------------------------------------------------------------------------*/
FoamFile
{
    version     2.0;
    format      ascii;
    arch        "LSB;label=32;scalar=64";
    class       volScalarField;
    location    "1.85";
    object      p_rgh;
}
// * * * * * * * * * * * * * * * * * * * * * * * * * * * * * * * * * * * * * //

dimensions      [1 -1 -2 0 0 0 0];

internalField   nonuniform List<scalar> 
6250
(
-3.07548
-3226.35
-1037.35
539.578
494.93
25.8294
-134.852
-57.5474
18.9133
25.2902
5.14183
-4.44116
-2.15683
1.53854
2.27193
1.45873
0.924158
0.956205
1.12994
1.18673
1.15719
1.12861
1.12037
1.11822
1.11373
1.11064
1.10674
1.10122
1.09892
1.09634
1.09361
1.0924
1.08505
1.07957
1.08565
1.08699
1.07965
1.07652
1.07532
1.06761
1.06097
1.06374
1.06508
1.05964
1.0571
1.05886
1.05451
1.04694
1.04891
1.04875
1.03627
1.02372
1.01469
1.00711
1.00363
1.00333
1.00091
0.994745
0.988399
0.986745
0.991034
0.995299
0.99823
1.00026
0.998287
0.992654
0.985737
0.980203
0.97724
0.978182
0.978822
0.976853
0.977405
0.977186
0.975305
0.9757
0.975945
0.974753
0.973845
0.969064
0.957021
0.946716
0.939632
0.930119
0.91972
0.908064
0.897239
0.8896
0.886278
0.886561
0.884526
0.882679
0.884051
0.883499
0.875553
0.860301
0.846307
0.838087
0.831099
0.822768
0.815693
0.80896
0.801235
0.797409
0.797079
0.796044
0.793846
0.787439
0.773964
0.759708
0.750948
0.744043
0.737758
0.732137
0.725367
0.721002
0.717114
0.710925
0.704923
0.697893
0.690346
0.684051
0.677662
0.671598
0.668484
0.66606
0.662397
0.659884
0.654464
0.645421
0.637695
0.630674
0.624359
0.619428
0.618719
0.622349
0.622525
0.618235
0.612429
0.605093
0.597877
0.592713
0.589817
0.583747
0.570052
0.556026
0.549681
0.548209
0.544779
0.538083
0.531841
0.525131
0.513838
0.501399
0.492191
0.484896
0.480534
0.477988
0.471444
0.463084
0.456091
0.44649
0.435442
0.425627
0.418437
0.418365
0.420542
0.419597
0.420615
0.421689
0.415883
0.404827
0.393077
0.382088
0.374343
0.371376
0.368363
0.363126
0.357571
0.351457
0.345771
0.340157
0.333799
0.329883
0.329291
0.326833
0.319267
0.311978
0.30766
0.301995
0.296983
0.296943
0.298506
0.296047
0.289059
0.281605
0.274
0.264323
0.255645
0.249871
0.245877
0.24286
0.239567
0.235698
0.230979
0.228546
0.231903
0.234872
0.232257
0.227036
0.221165
0.213579
0.203871
0.194351
0.187485
0.183639
0.179692
0.173077
0.168038
0.165921
0.162827
0.158652
0.156306
0.156421
0.153349
0.145004
0.13841
0.137603
0.137804
0.131369
0.120733
0.113038
0.107616
0.103087
0.0995226
0.0983832
0.0986448
0.0932266
0.0835066
0.0766412
0.0727273
0.0683164
0.0618497
0.0539458
0.0447857
0.0359122
0.0286104
0.0211824
0.0155636
0.00139368
-3.10583
-3226.42
-1037.39
539.589
494.942
25.8286
-134.858
-57.5516
18.912
25.2912
5.14437
-4.44339
-2.1661
1.53497
2.27682
1.45927
0.919925
0.953834
1.12925
1.18796
1.15784
1.12572
1.12036
1.12247
1.11635
1.11073
1.10569
1.09871
1.09513
1.09589
1.09275
1.08537
1.08122
1.08426
1.08994
1.08942
1.08531
1.07824
1.069
1.0635
1.06138
1.06181
1.06247
1.06234
1.05955
1.05568
1.05458
1.053
1.05115
1.04364
1.02939
1.02005
1.01639
1.01379
1.00797
0.999947
0.99542
0.991777
0.988843
0.991691
0.99718
0.997569
0.996249
0.996748
0.994543
0.98862
0.983001
0.981124
0.979649
0.97995
0.981914
0.980011
0.976657
0.973786
0.975518
0.979754
0.976544
0.97004
0.968558
0.968205
0.961292
0.950894
0.93971
0.927776
0.916677
0.904331
0.898042
0.896937
0.890697
0.884235
0.881625
0.881606
0.883085
0.884136
0.880386
0.866289
0.848018
0.83332
0.822263
0.813965
0.809646
0.811576
0.814117
0.808482
0.79778
0.791118
0.786853
0.780609
0.772543
0.762657
0.755009
0.746152
0.73344
0.726852
0.724821
0.720982
0.718142
0.714697
0.706707
0.696927
0.688271
0.681153
0.678653
0.678266
0.675267
0.669142
0.659537
0.651999
0.646757
0.640599
0.637183
0.634497
0.629376
0.623864
0.621834
0.622484
0.618825
0.614519
0.614081
0.609304
0.597599
0.587382
0.583884
0.581737
0.574722
0.564985
0.555683
0.546475
0.53736
0.530239
0.528519
0.528593
0.520178
0.505403
0.494335
0.487441
0.481331
0.474505
0.466045
0.45925
0.454954
0.446642
0.43454
0.425195
0.419932
0.419293
0.422153
0.424493
0.425186
0.422207
0.412239
0.397674
0.386232
0.38012
0.377053
0.377767
0.376188
0.366032
0.353317
0.345506
0.343992
0.342081
0.335168
0.330421
0.328894
0.322861
0.314537
0.313086
0.315244
0.308512
0.296399
0.291889
0.292653
0.290502
0.286184
0.283353
0.279999
0.270324
0.257118
0.247533
0.241531
0.23812
0.23687
0.236578
0.236048
0.23413
0.233063
0.232314
0.228811
0.224675
0.221439
0.215263
0.205054
0.196492
0.190374
0.184611
0.180112
0.174333
0.168522
0.163247
0.15584
0.1532
0.156213
0.157291
0.155764
0.153105
0.148005
0.140399
0.133606
0.126543
0.116838
0.109113
0.105788
0.104169
0.100336
0.0958286
0.0954447
0.0952003
0.0908396
0.0834506
0.0749146
0.0662921
0.0559567
0.0470097
0.0417213
0.0361776
0.0293129
0.0217584
0.0103893
0.00402831
-3.10732
-3226.41
-1037.37
539.597
494.944
25.8292
-134.854
-57.5485
18.9096
25.2934
5.15297
-4.44237
-2.16877
1.53813
2.27935
1.45938
0.924912
0.961649
1.13133
1.18571
1.15958
1.1271
1.11517
1.11693
1.11371
1.11129
1.11036
1.10631
1.10339
1.09721
1.08889
1.08785
1.08687
1.08329
1.08495
1.08411
1.08145
1.07886
1.07245
1.06902
1.0664
1.06276
1.06365
1.06351
1.05712
1.05314
1.05662
1.05572
1.0485
1.04126
1.02927
1.01819
1.01634
1.01534
1.00871
1.00083
0.995032
0.992482
0.991151
0.990474
0.996923
1.00181
0.996965
0.994649
0.995229
0.989343
0.982364
0.980134
0.979666
0.982948
0.984994
0.978098
0.973362
0.97429
0.975001
0.977065
0.97888
0.976647
0.971125
0.96477
0.956841
0.950212
0.942846
0.929402
0.916102
0.904433
0.89635
0.894822
0.891392
0.886728
0.887016
0.886907
0.882037
0.877983
0.873674
0.861945
0.849459
0.841098
0.829331
0.81472
0.80686
0.806667
0.806186
0.802669
0.800479
0.799775
0.791665
0.778323
0.769527
0.760054
0.750909
0.746899
0.740387
0.732475
0.726753
0.720357
0.715801
0.713709
0.707272
0.697451
0.690184
0.682251
0.674816
0.672349
0.67207
0.671096
0.665873
0.657932
0.649983
0.640906
0.634315
0.630059
0.626955
0.62549
0.623512
0.621838
0.619198
0.614869
0.611376
0.606837
0.600379
0.594367
0.587718
0.577577
0.566859
0.560403
0.555807
0.550194
0.544266
0.537289
0.530479
0.523853
0.512104
0.498217
0.491807
0.490025
0.485002
0.477681
0.469644
0.461911
0.455862
0.446005
0.433318
0.426464
0.422627
0.419098
0.419944
0.42327
0.424896
0.421766
0.412224
0.398922
0.387426
0.380517
0.376732
0.375318
0.372986
0.365651
0.356512
0.349165
0.343346
0.338419
0.334746
0.332412
0.328917
0.323203
0.316939
0.312285
0.309903
0.305596
0.299227
0.296756
0.29637
0.29274
0.286236
0.279845
0.274359
0.266708
0.25796
0.25169
0.246331
0.241033
0.235279
0.231012
0.232412
0.235632
0.237024
0.236177
0.231631
0.225924
0.219861
0.211458
0.203066
0.19821
0.1932
0.183965
0.175539
0.170953
0.167735
0.163282
0.158752
0.1594
0.160994
0.156145
0.149972
0.14827
0.146905
0.140195
0.132411
0.126908
0.11914
0.110988
0.107252
0.106839
0.104486
0.097802
0.0917079
0.0880804
0.0848893
0.0809236
0.0757555
0.0694842
0.0605561
0.0508231
0.0429191
0.0362662
0.0298027
0.0217332
0.0116771
0.00375081
-3.10752
-3226.41
-1037.38
539.587
494.939
25.8274
-134.856
-57.5525
18.9073
25.2904
5.14631
-4.44447
-2.16699
1.53728
2.27541
1.45648
0.925711
0.961631
1.13044
1.18469
1.15509
1.12391
1.11407
1.11614
1.11501
1.10923
1.10679
1.10642
1.10319
1.09862
1.0915
1.08304
1.08138
1.08627
1.0855
1.0802
1.08067
1.07816
1.07072
1.07007
1.07139
1.06743
1.06169
1.05801
1.05534
1.05242
1.05389
1.05479
1.04814
1.0391
1.02907
1.01924
1.01426
1.01213
1.00773
1.00078
0.995349
0.992848
0.993217
0.996614
0.997661
0.995701
0.99667
0.996057
0.991557
0.989312
0.985345
0.979574
0.979856
0.983176
0.981838
0.977878
0.976339
0.975876
0.97549
0.974242
0.974179
0.976686
0.973524
0.964251
0.955631
0.947384
0.937512
0.928762
0.921134
0.909469
0.898906
0.894192
0.889748
0.885885
0.885937
0.888419
0.88864
0.8816
0.867473
0.85463
0.847555
0.838378
0.826339
0.818501
0.812149
0.804877
0.801466
0.801355
0.800973
0.798487
0.789204
0.778343
0.771504
0.759937
0.748753
0.744356
0.737654
0.732327
0.731004
0.72507
0.716561
0.710484
0.703472
0.695212
0.689341
0.683903
0.679844
0.677785
0.673185
0.668557
0.66346
0.655527
0.648429
0.641476
0.63452
0.62913
0.626268
0.626189
0.625174
0.622944
0.620318
0.615801
0.609555
0.602784
0.59899
0.596032
0.587053
0.574919
0.566487
0.561779
0.556229
0.548199
0.542361
0.539392
0.532882
0.521982
0.511212
0.501125
0.493253
0.489192
0.483713
0.476198
0.470342
0.463289
0.454633
0.445216
0.43449
0.427799
0.425173
0.422241
0.422056
0.424439
0.422287
0.414874
0.407076
0.397911
0.387813
0.383205
0.381302
0.376068
0.369548
0.363171
0.356736
0.350396
0.343415
0.337983
0.335504
0.331567
0.32533
0.322807
0.321567
0.314417
0.306504
0.303139
0.300847
0.298007
0.294277
0.290455
0.286556
0.279524
0.271979
0.265948
0.259122
0.252331
0.246022
0.241304
0.237457
0.232935
0.232544
0.234623
0.233799
0.23296
0.232566
0.228158
0.219743
0.211519
0.205179
0.199997
0.194173
0.185698
0.177569
0.17084
0.163502
0.158107
0.157066
0.159022
0.159893
0.157885
0.154049
0.149771
0.14655
0.140615
0.131552
0.124927
0.119658
0.113572
0.107487
0.102722
0.100813
0.0990536
0.0941698
0.088345
0.0850788
0.0816713
0.0747501
0.067137
0.0600992
0.0525618
0.0444651
0.0363086
0.0276422
0.0185901
0.0102386
0.00316209
-3.1101
-3226.41
-1037.38
539.587
494.944
25.8319
-134.857
-57.5506
18.9101
25.2897
5.1483
-4.4408
-2.16716
1.53626
2.2779
1.46056
0.929234
0.965564
1.13276
1.18466
1.15269
1.12066
1.11353
1.11802
1.11998
1.11631
1.11027
1.10623
1.10293
1.09571
1.08748
1.08635
1.08838
1.08687
1.08331
1.07977
1.08014
1.08256
1.07763
1.07029
1.06923
1.06686
1.06036
1.05763
1.0597
1.05971
1.0552
1.04877
1.04008
1.035
1.03347
1.02543
1.01469
1.00831
1.00697
1.00577
0.999544
0.995361
0.996632
0.996143
0.994679
0.997566
0.999394
0.993599
0.989427
0.989456
0.984578
0.981204
0.984209
0.983705
0.97886
0.977418
0.978017
0.97793
0.977333
0.972885
0.971996
0.976894
0.973481
0.962886
0.95466
0.948164
0.939593
0.928711
0.919419
0.911901
0.90389
0.896358
0.891783
0.88836
0.884734
0.885259
0.887281
0.881795
0.868708
0.85675
0.846482
0.83367
0.82416
0.819002
0.81211
0.804523
0.80054
0.801214
0.802176
0.798357
0.788005
0.775825
0.767833
0.76019
0.750995
0.744453
0.740623
0.736949
0.731076
0.72439
0.718284
0.711497
0.703525
0.694542
0.688225
0.685028
0.682207
0.679591
0.674705
0.668607
0.662424
0.65352
0.645732
0.641865
0.63817
0.632159
0.627064
0.625555
0.623227
0.621259
0.622496
0.618367
0.607277
0.599768
0.598807
0.596528
0.586968
0.574193
0.566184
0.563582
0.558752
0.549148
0.54191
0.538259
0.531339
0.521137
0.511523
0.502211
0.494663
0.489602
0.48307
0.476427
0.471781
0.464892
0.455826
0.446208
0.436087
0.42961
0.426561
0.424362
0.424557
0.4241
0.419073
0.411702
0.403841
0.395388
0.388635
0.386027
0.384178
0.37773
0.368502
0.361481
0.356974
0.351644
0.343745
0.337187
0.333948
0.329351
0.32418
0.323699
0.323887
0.317392
0.307759
0.302495
0.300414
0.296895
0.29154
0.288527
0.287873
0.282079
0.27278
0.265664
0.258614
0.252378
0.246931
0.241276
0.237214
0.233869
0.233598
0.235607
0.234765
0.233241
0.231459
0.226433
0.220077
0.21503
0.209277
0.200753
0.192178
0.184583
0.176595
0.168848
0.16289
0.159783
0.158268
0.157881
0.159454
0.160404
0.156254
0.148436
0.143591
0.139665
0.131299
0.123258
0.119936
0.11705
0.109172
0.100146
0.0975151
0.0976661
0.0941749
0.0895149
0.0864806
0.0822276
0.0745835
0.0658542
0.0578939
0.0515975
0.0454784
0.0378936
0.0288594
0.0192449
0.010268
0.0033708
-3.11101
-3226.42
-1037.39
539.585
494.942
25.8315
-134.857
-57.5538
18.9085
25.292
5.14901
-4.44275
-2.16938
1.53388
2.27626
1.4595
0.928453
0.966595
1.13421
1.18389
1.15143
1.11968
1.11104
1.11512
1.11724
1.11271
1.10808
1.10599
1.10142
1.09421
1.08959
1.08714
1.08581
1.08547
1.08252
1.0785
1.07864
1.08209
1.07911
1.0702
1.0685
1.0677
1.06061
1.05691
1.05941
1.06
1.05212
1.0431
1.03798
1.03411
1.03071
1.02389
1.01625
1.00934
1.00457
1.00391
1.00019
0.997751
0.999246
0.997571
0.995109
0.9959
0.996825
0.993937
0.990391
0.987834
0.984741
0.98267
0.981932
0.982653
0.981289
0.978341
0.977236
0.975317
0.974305
0.974313
0.974356
0.9744
0.969986
0.960963
0.952303
0.947627
0.941387
0.930996
0.921419
0.91183
0.903529
0.897154
0.89239
0.889851
0.887097
0.886376
0.885515
0.877566
0.865609
0.856849
0.847394
0.83241
0.820449
0.815084
0.811201
0.806717
0.803068
0.801575
0.797872
0.791567
0.784534
0.774913
0.767319
0.761151
0.751626
0.74464
0.742459
0.738269
0.730955
0.724455
0.718194
0.711246
0.704459
0.695647
0.686777
0.68322
0.683024
0.681225
0.676534
0.670174
0.662191
0.652244
0.643533
0.638509
0.636591
0.634972
0.630988
0.627265
0.623906
0.619137
0.616419
0.613972
0.609136
0.605216
0.59989
0.590116
0.580534
0.574513
0.570314
0.56504
0.557508
0.549886
0.543843
0.537625
0.5291
0.518174
0.508595
0.502772
0.497185
0.490451
0.484233
0.478494
0.472667
0.464676
0.45448
0.446398
0.439972
0.432031
0.426961
0.426641
0.425029
0.421007
0.416215
0.409477
0.40174
0.394919
0.389409
0.385271
0.38258
0.378971
0.371579
0.361782
0.352886
0.347229
0.343423
0.338865
0.33476
0.33115
0.32663
0.322236
0.31887
0.314725
0.309021
0.304726
0.301613
0.29722
0.291677
0.28695
0.28464
0.280165
0.272706
0.266686
0.260036
0.25352
0.247277
0.239736
0.23602
0.233832
0.231557
0.233923
0.236695
0.235815
0.231722
0.225159
0.220088
0.216723
0.210272
0.200861
0.192681
0.184693
0.174589
0.166341
0.163201
0.161888
0.159598
0.158499
0.158531
0.157728
0.155372
0.149511
0.143036
0.13827
0.130937
0.123091
0.118822
0.114172
0.107839
0.103645
0.101148
0.0976336
0.0926093
0.0873673
0.0837116
0.0803889
0.0747052
0.0665702
0.0578358
0.051087
0.0450718
0.037631
0.0297406
0.0197769
0.00817769
0.00173491
-3.11133
-3226.42
-1037.39
539.584
494.942
25.8332
-134.859
-57.5571
18.9099
25.2961
5.14926
-4.44259
-2.16576
1.53713
2.27811
1.46287
0.92926
0.963948
1.13546
1.18777
1.15241
1.11935
1.11187
1.11482
1.11565
1.11216
1.11071
1.1075
1.09961
1.09558
1.09422
1.09004
1.08388
1.0798
1.08051
1.08274
1.08361
1.08507
1.08153
1.07075
1.06619
1.06623
1.0633
1.06267
1.06266
1.05693
1.04589
1.04079
1.04146
1.03774
1.03063
1.02094
1.01371
1.01074
1.00907
1.00895
1.00389
0.999101
0.998621
0.997694
0.998343
0.998357
0.996467
0.991771
0.98737
0.987456
0.987028
0.985605
0.983923
0.981226
0.979845
0.980864
0.977689
0.970865
0.973105
0.978695
0.978289
0.973093
0.964887
0.959603
0.954944
0.949503
0.942934
0.931622
0.920598
0.913631
0.908055
0.898759
0.890695
0.890679
0.891526
0.889367
0.884301
0.875386
0.864011
0.852511
0.842487
0.833546
0.825896
0.81652
0.807456
0.803309
0.801661
0.802441
0.800389
0.79096
0.780525
0.771391
0.763817
0.759521
0.755267
0.748878
0.743904
0.740382
0.733633
0.725356
0.718079
0.710091
0.702608
0.696645
0.691529
0.687712
0.684141
0.680756
0.676843
0.668636
0.658342
0.650898
0.645999
0.642412
0.639228
0.634995
0.6298
0.62686
0.625845
0.621669
0.614794
0.608769
0.606557
0.607215
0.601876
0.589546
0.579818
0.575056
0.570262
0.563681
0.557609
0.55204
0.544335
0.536185
0.529031
0.519666
0.51014
0.503178
0.495903
0.489878
0.486068
0.481284
0.474785
0.465364
0.45502
0.447859
0.441836
0.435571
0.431311
0.427509
0.422842
0.418749
0.413762
0.407603
0.401391
0.395673
0.391649
0.386197
0.380383
0.377277
0.371183
0.362409
0.355014
0.347783
0.342116
0.337429
0.332662
0.330966
0.329967
0.324176
0.317486
0.314619
0.310996
0.304907
0.299053
0.294892
0.292767
0.289565
0.285496
0.280428
0.272307
0.265498
0.260323
0.254307
0.247362
0.239414
0.23535
0.234604
0.233685
0.235439
0.237031
0.234831
0.230676
0.226535
0.223288
0.21794
0.210061
0.202633
0.193443
0.182048
0.173575
0.168305
0.163768
0.160579
0.160033
0.161826
0.160892
0.155738
0.152349
0.149256
0.142667
0.136562
0.131712
0.124905
0.116757
0.110073
0.107055
0.106055
0.102291
0.0971102
0.0933926
0.0882057
0.0819349
0.0772797
0.0721064
0.065466
0.058357
0.0514097
0.0453876
0.0393425
0.0311376
0.0199302
0.00954275
0.00303495
-3.11385
-3226.42
-1037.39
539.586
494.947
25.8339
-134.861
-57.5568
18.9127
25.2955
5.14615
-4.44329
-2.16358
1.53663
2.27511
1.46358
0.933022
0.965019
1.13316
1.18773
1.1545
1.11663
1.10793
1.11677
1.11999
1.11269
1.10694
1.10312
1.09706
1.09509
1.09323
1.08774
1.08261
1.07966
1.07993
1.08527
1.08751
1.08145
1.07618
1.07155
1.06677
1.06586
1.06681
1.06629
1.05991
1.05118
1.04194
1.03702
1.04
1.03829
1.02801
1.01806
1.01515
1.01298
1.0084
1.00803
1.00487
1.00172
1.00158
0.997239
0.996894
0.998929
0.995639
0.991358
0.988873
0.985268
0.984278
0.986776
0.982491
0.980208
0.984182
0.980856
0.973679
0.969755
0.971574
0.976665
0.977677
0.971721
0.964858
0.961841
0.953872
0.946386
0.942718
0.932024
0.922432
0.91615
0.906763
0.898737
0.893681
0.89178
0.892157
0.889504
0.880856
0.87239
0.864372
0.851309
0.839134
0.830481
0.82336
0.816954
0.809561
0.803675
0.801047
0.799796
0.794073
0.784976
0.779082
0.772718
0.763499
0.75693
0.752986
0.749616
0.747814
0.743291
0.733142
0.724089
0.718479
0.711083
0.702503
0.697241
0.693667
0.688817
0.684396
0.680579
0.67466
0.666134
0.658107
0.652097
0.646475
0.642061
0.640098
0.637664
0.630882
0.623739
0.622037
0.620011
0.614296
0.610951
0.609567
0.604119
0.594082
0.58543
0.582164
0.579431
0.571453
0.561039
0.554977
0.552412
0.546378
0.53573
0.525668
0.517182
0.509898
0.504492
0.498024
0.491846
0.48795
0.481985
0.473446
0.465123
0.45669
0.448676
0.443368
0.438853
0.433033
0.428339
0.423016
0.415926
0.410512
0.406493
0.401065
0.394801
0.390463
0.385976
0.380415
0.375747
0.368758
0.36084
0.354353
0.347723
0.343411
0.338666
0.331796
0.32944
0.3295
0.324537
0.317393
0.31362
0.310215
0.30453
0.298757
0.295038
0.293615
0.290165
0.284598
0.279265
0.272299
0.26568
0.258962
0.252109
0.247476
0.240518
0.234161
0.233277
0.233637
0.236183
0.238557
0.235453
0.231922
0.228817
0.222099
0.214693
0.209545
0.203706
0.192928
0.180416
0.173545
0.169961
0.164545
0.160743
0.160704
0.161739
0.159629
0.154426
0.152185
0.149713
0.141365
0.134284
0.131513
0.125215
0.114578
0.107684
0.107579
0.108245
0.103102
0.0956835
0.0915129
0.0871191
0.0808074
0.0746315
0.0686885
0.06404
0.0594594
0.05443
0.0489909
0.0383934
0.0276613
0.0185282
0.0089419
0.00275237
-3.11453
-3226.43
-1037.39
539.59
494.949
25.8317
-134.861
-57.5551
18.9109
25.2945
5.14638
-4.44557
-2.16393
1.54062
2.27935
1.46692
0.933384
0.963994
1.13606
1.18863
1.15043
1.11796
1.11341
1.11702
1.11596
1.11128
1.10804
1.10479
1.10179
1.09867
1.0912
1.08316
1.07817
1.07888
1.08403
1.08996
1.08978
1.08001
1.07403
1.07275
1.07037
1.07113
1.07039
1.0644
1.05512
1.04767
1.04389
1.04193
1.04107
1.03513
1.02617
1.01686
1.01361
1.01732
1.01417
1.00944
1.00708
1.00435
1.00345
1.00082
0.999249
0.998064
0.993927
0.988756
0.986613
0.988203
0.98817
0.987298
0.984216
0.980874
0.979707
0.976774
0.974827
0.973912
0.975036
0.976446
0.974396
0.970736
0.965238
0.962502
0.957573
0.947443
0.940357
0.932525
0.924589
0.917382
0.908445
0.901222
0.895731
0.892936
0.892836
0.889488
0.879999
0.871413
0.862668
0.848826
0.838926
0.832022
0.82318
0.815646
0.807904
0.80371
0.803264
0.799304
0.79135
0.781434
0.773549
0.770393
0.76583
0.758635
0.75395
0.750921
0.748098
0.744538
0.736663
0.727756
0.71919
0.709136
0.702618
0.700014
0.695772
0.690391
0.685915
0.681286
0.674787
0.665095
0.655841
0.650917
0.648639
0.646844
0.643027
0.637011
0.630772
0.624631
0.620526
0.617223
0.613737
0.613378
0.611428
0.6028
0.591758
0.583293
0.579873
0.578697
0.5739
0.565663
0.557465
0.550322
0.543541
0.535036
0.525826
0.517983
0.510743
0.505027
0.500118
0.495039
0.489822
0.482015
0.473214
0.466376
0.459768
0.452385
0.446309
0.440713
0.433662
0.427553
0.422222
0.416473
0.411913
0.406612
0.399388
0.392445
0.388641
0.38648
0.3814
0.374592
0.367218
0.360151
0.354413
0.347954
0.343428
0.340452
0.334738
0.329128
0.326059
0.323369
0.319298
0.31448
0.309783
0.304892
0.299873
0.295834
0.293769
0.290213
0.284138
0.279666
0.274816
0.267276
0.258077
0.248834
0.243397
0.239689
0.236768
0.237463
0.238443
0.238104
0.236905
0.233823
0.231983
0.229739
0.222977
0.216438
0.21111
0.201912
0.190267
0.180666
0.174791
0.170543
0.166058
0.163192
0.161798
0.160938
0.159234
0.155213
0.152004
0.148734
0.141771
0.134371
0.128942
0.12248
0.115702
0.11157
0.107861
0.104608
0.101757
0.0959397
0.0903455
0.0861048
0.0797392
0.0730586
0.0682657
0.0640961
0.0603603
0.055711
0.0482696
0.037548
0.0279213
0.0189089
0.00860276
0.00218702
-3.11779
-3226.43
-1037.39
539.593
494.946
25.8299
-134.858
-57.5544
18.9098
25.2925
5.14484
-4.44293
-2.15987
1.54223
2.27902
1.46567
0.938081
0.973565
1.13635
1.18241
1.1475
1.11599
1.11357
1.12129
1.11985
1.11357
1.10588
1.09653
1.09601
1.09795
1.09078
1.08231
1.07842
1.08144
1.0863
1.08718
1.08642
1.07992
1.07285
1.07356
1.07346
1.07131
1.07006
1.06378
1.05244
1.0451
1.04337
1.04098
1.03854
1.03204
1.02329
1.01692
1.01415
1.01727
1.0161
1.01026
1.00836
1.00844
1.00471
0.998928
0.998995
0.997975
0.992324
0.989013
0.98747
0.986809
0.986639
0.986989
0.984143
0.980767
0.979286
0.974155
0.973247
0.975912
0.975261
0.97424
0.972052
0.969261
0.965632
0.961995
0.957447
0.949403
0.941135
0.931825
0.924242
0.91713
0.907159
0.901758
0.899316
0.895325
0.89218
0.888168
0.879172
0.867881
0.857675
0.846949
0.838591
0.831701
0.823336
0.815541
0.808148
0.803021
0.799181
0.793594
0.788198
0.780986
0.772639
0.765975
0.760107
0.757053
0.757225
0.75521
0.749958
0.743127
0.735476
0.728036
0.719096
0.710177
0.704754
0.7004
0.696183
0.692332
0.686689
0.679622
0.67216
0.664136
0.657015
0.651821
0.649213
0.64808
0.642656
0.635089
0.630435
0.624662
0.619238
0.617164
0.614642
0.612089
0.607315
0.598107
0.590877
0.586265
0.579937
0.573998
0.570832
0.567539
0.560794
0.55107
0.541466
0.53156
0.522007
0.516485
0.512384
0.50812
0.50368
0.496829
0.489677
0.482152
0.472998
0.465861
0.460823
0.45465
0.449019
0.443467
0.435057
0.427149
0.420659
0.41436
0.410423
0.406282
0.399649
0.392107
0.386612
0.384007
0.379318
0.372308
0.365861
0.359747
0.354572
0.348358
0.342443
0.339904
0.336525
0.330067
0.324638
0.321657
0.317788
0.312935
0.309389
0.306347
0.302744
0.29782
0.292287
0.287655
0.283975
0.279782
0.272852
0.265332
0.257535
0.248599
0.243256
0.240019
0.236726
0.238085
0.239955
0.238857
0.238164
0.235786
0.230882
0.225522
0.22002
0.216874
0.21217
0.201127
0.190868
0.182612
0.174125
0.168884
0.165732
0.163527
0.161947
0.159595
0.159758
0.158597
0.151543
0.145525
0.142329
0.135925
0.126588
0.118725
0.11453
0.112331
0.108049
0.104035
0.101158
0.0949609
0.088516
0.0832029
0.0774457
0.0730013
0.0683706
0.0636821
0.060206
0.0536363
0.0459831
0.0381522
0.029311
0.0169786
0.00633175
0.00253341
-3.11749
-3226.43
-1037.39
539.592
494.946
25.8313
-134.858
-57.5563
18.9081
25.2927
5.14734
-4.44176
-2.16123
1.54621
2.28816
1.46932
0.935159
0.970195
1.13335
1.1837
1.15476
1.12239
1.11469
1.11676
1.11339
1.10948
1.10506
1.1023
1.10338
1.09744
1.08471
1.07823
1.08185
1.08727
1.086
1.08264
1.08444
1.08208
1.07677
1.07732
1.07691
1.07239
1.0662
1.05841
1.05153
1.04733
1.045
1.04419
1.03907
1.02665
1.01952
1.01854
1.01643
1.01941
1.01962
1.01464
1.01326
1.0104
1.00556
1.00108
0.996719
0.993269
0.992693
0.993589
0.990467
0.986943
0.985907
0.984673
0.98282
0.982291
0.98058
0.974467
0.972662
0.976166
0.977018
0.974875
0.9713
0.970062
0.966741
0.959944
0.956234
0.950888
0.942166
0.934611
0.928088
0.917945
0.906755
0.902423
0.901462
0.896761
0.890884
0.887044
0.880434
0.867521
0.855314
0.84573
0.837756
0.832102
0.823716
0.815138
0.810389
0.804512
0.797127
0.789809
0.783353
0.778011
0.772408
0.766394
0.760931
0.756391
0.756038
0.756214
0.75184
0.745077
0.737299
0.727993
0.718914
0.712212
0.707927
0.702674
0.696053
0.692676
0.689906
0.681475
0.670756
0.662138
0.65605
0.653697
0.652813
0.649717
0.642965
0.635075
0.630045
0.625496
0.619803
0.61678
0.615873
0.612755
0.60627
0.596772
0.588238
0.58341
0.579682
0.575858
0.573526
0.570682
0.561801
0.548942
0.539505
0.530881
0.521595
0.517209
0.514812
0.510594
0.50543
0.498023
0.490254
0.483677
0.476043
0.468543
0.46276
0.456793
0.449875
0.443142
0.436636
0.429763
0.422435
0.416111
0.409937
0.402535
0.397095
0.392291
0.386737
0.383325
0.378002
0.371548
0.36649
0.359033
0.352813
0.348846
0.34361
0.340545
0.338078
0.33112
0.322811
0.318873
0.317916
0.315237
0.311012
0.307573
0.304413
0.298562
0.291385
0.287456
0.285316
0.280483
0.271937
0.26319
0.255723
0.248006
0.243742
0.243186
0.24175
0.240694
0.239784
0.237787
0.236944
0.235623
0.231122
0.225738
0.22155
0.217201
0.210117
0.199974
0.190746
0.183857
0.176742
0.170111
0.165704
0.164316
0.162727
0.159808
0.159884
0.15887
0.1523
0.146628
0.142518
0.134799
0.125944
0.119765
0.115077
0.111777
0.107948
0.102203
0.0988225
0.0956617
0.0879806
0.0796814
0.0751
0.0722717
0.0690967
0.065397
0.0598774
0.050686
0.0442105
0.0390689
0.0293992
0.016493
0.00616803
0.00253634
-3.11852
-3226.43
-1037.39
539.589
494.949
25.8365
-134.854
-57.5547
18.9065
25.2918
5.14869
-4.44051
-2.1608
1.54459
2.28501
1.4711
0.940814
0.971629
1.13654
1.19045
1.15546
1.1185
1.1109
1.11547
1.11446
1.11028
1.10788
1.10213
1.09568
1.09255
1.08873
1.08486
1.08391
1.0832
1.08127
1.07992
1.08101
1.0829
1.08204
1.07926
1.07578
1.07089
1.06687
1.06047
1.05076
1.04415
1.04215
1.0413
1.03723
1.02753
1.01936
1.01665
1.016
1.01793
1.02129
1.02024
1.01469
1.00976
1.00661
1.00132
0.995902
0.99245
0.991427
0.992869
0.990226
0.986541
0.986854
0.984162
0.980855
0.981112
0.979684
0.975418
0.973527
0.974686
0.975402
0.973853
0.969875
0.967845
0.966033
0.961416
0.957181
0.951877
0.944284
0.934744
0.923249
0.915554
0.910122
0.905387
0.901398
0.895259
0.889117
0.884764
0.879139
0.867742
0.853151
0.84267
0.837082
0.832827
0.82475
0.814748
0.807385
0.800618
0.79402
0.786643
0.780189
0.777538
0.77041
0.761843
0.759251
0.75902
0.758697
0.757236
0.750705
0.742155
0.735501
0.727971
0.720516
0.714724
0.708279
0.702492
0.698413
0.694246
0.689235
0.680782
0.670199
0.661424
0.655967
0.653629
0.652271
0.649501
0.644074
0.634701
0.627226
0.62505
0.622734
0.619587
0.614296
0.606242
0.600113
0.595703
0.58943
0.583548
0.578034
0.574558
0.573876
0.570423
0.560434
0.54792
0.537157
0.528016
0.521637
0.519414
0.516806
0.511072
0.50535
0.499273
0.491766
0.485114
0.477521
0.468644
0.463371
0.458538
0.450945
0.44464
0.438244
0.42951
0.421723
0.415634
0.408758
0.400974
0.395977
0.392194
0.385946
0.380263
0.374949
0.369712
0.366043
0.35873
0.35201
0.349541
0.344523
0.339002
0.336159
0.330328
0.321747
0.317488
0.317957
0.317443
0.313861
0.308722
0.302839
0.296151
0.291263
0.289371
0.285748
0.278341
0.268378
0.259718
0.255538
0.250723
0.245755
0.244487
0.242855
0.241
0.240149
0.237821
0.235525
0.233694
0.229293
0.224396
0.221314
0.216841
0.209005
0.199375
0.191092
0.184972
0.177434
0.169456
0.163951
0.16219
0.163757
0.16368
0.161458
0.158485
0.152562
0.145227
0.13903
0.132661
0.126343
0.120645
0.115346
0.111474
0.106746
0.0998767
0.0952203
0.0915775
0.0865801
0.0812769
0.0758322
0.0706933
0.0668474
0.0624533
0.0574789
0.0516101
0.0450417
0.0383493
0.0281397
0.0167357
0.0100025
0.00444138
-3.11911
-3226.43
-1037.39
539.59
494.953
25.8375
-134.856
-57.5553
18.9107
25.296
5.14662
-4.44234
-2.15933
1.54559
2.2913
1.4754
0.93684
0.972256
1.14289
1.19289
1.1559
1.11933
1.10822
1.1106
1.11185
1.11021
1.10957
1.10279
1.09331
1.0898
1.08983
1.08902
1.08509
1.08133
1.08029
1.07995
1.08051
1.08339
1.08513
1.08088
1.07434
1.07069
1.06631
1.05934
1.05315
1.0484
1.04277
1.03769
1.03256
1.02541
1.02043
1.02078
1.02115
1.02075
1.02231
1.02214
1.01798
1.01178
1.00576
1.00008
0.994569
0.993109
0.995746
0.99545
0.989328
0.984661
0.984509
0.984724
0.984766
0.983009
0.978831
0.97681
0.975168
0.973026
0.973992
0.973772
0.970656
0.968177
0.966457
0.963062
0.958868
0.953274
0.946094
0.935832
0.922791
0.915197
0.912276
0.907076
0.901906
0.895738
0.888285
0.882382
0.876486
0.866583
0.854039
0.845175
0.838242
0.831105
0.824031
0.816203
0.808698
0.800132
0.791078
0.782582
0.776822
0.775639
0.771148
0.763885
0.760589
0.758562
0.758327
0.757867
0.751398
0.742326
0.734303
0.726754
0.721772
0.717526
0.710955
0.705967
0.701647
0.69522
0.68861
0.679523
0.668474
0.661234
0.658282
0.656943
0.652931
0.648244
0.645172
0.637939
0.629004
0.62415
0.619957
0.617557
0.615609
0.6087
0.600794
0.592898
0.585001
0.581532
0.580583
0.579624
0.576276
0.567733
0.55815
0.54764
0.535804
0.528194
0.524176
0.520388
0.516578
0.51178
0.507325
0.502845
0.494659
0.485729
0.478787
0.470997
0.464369
0.45945
0.452884
0.446917
0.440275
0.431164
0.422451
0.414614
0.407501
0.400205
0.394182
0.391013
0.386611
0.381423
0.376232
0.370773
0.36504
0.356313
0.349195
0.348587
0.346957
0.34196
0.334997
0.326738
0.321124
0.319512
0.320025
0.319375
0.315311
0.308864
0.302167
0.296626
0.293254
0.290399
0.284278
0.276055
0.266753
0.257898
0.255439
0.254921
0.251023
0.247364
0.24335
0.23973
0.238659
0.236986
0.235485
0.234616
0.2304
0.224034
0.219944
0.21555
0.208564
0.201146
0.192747
0.184357
0.177704
0.171335
0.165843
0.164385
0.165696
0.164712
0.161131
0.158036
0.153097
0.145386
0.138187
0.132467
0.127076
0.121761
0.115876
0.109051
0.103394
0.0997854
0.0959312
0.0903325
0.0851579
0.078985
0.0733571
0.0705249
0.0667851
0.0610787
0.0569389
0.0531995
0.0459532
0.0367067
0.0282989
0.0191348
0.0114677
0.00487041
-3.11757
-3226.43
-1037.39
539.591
494.954
25.8391
-134.854
-57.5511
18.9093
25.2913
5.14864
-4.43899
-2.15886
1.54749
2.28977
1.47434
0.940377
0.974015
1.14559
1.19734
1.15493
1.11759
1.10675
1.10906
1.11503
1.11123
1.10568
1.10069
1.0951
1.09324
1.09025
1.08639
1.08041
1.07635
1.07965
1.08228
1.08206
1.08405
1.08426
1.08011
1.07631
1.07249
1.06655
1.05869
1.05121
1.04678
1.04038
1.03458
1.03217
1.02672
1.0193
1.01684
1.02133
1.02568
1.02571
1.02375
1.01616
1.00841
1.00484
1.00171
0.996852
0.993908
0.992617
0.989986
0.988292
0.988217
0.987649
0.985622
0.982652
0.980061
0.977327
0.976782
0.975358
0.97277