/*--------------------------------*- C++ -*----------------------------------*\
| =========                 |                                                 |
| \\      /  F ield         | OpenFOAM: The Open Source CFD Toolbox           |
|  \\    /   O peration     | Version:  2406                                  |
|   \\  /    A nd           | Website:  www.openfoam.com                      |
|    \\/     M anipulation  |                                                 |
\*---------------------------------------------------------------------------*/
FoamFile
{
    version     2.0;
    format      ascii;
    arch        "LSB;label=32;scalar=64";
    class       surfaceScalarField;
    location    "1.85";
    object      phi;
}
// * * * * * * * * * * * * * * * * * * * * * * * * * * * * * * * * * * * * * //

dimensions      [0 3 -1 0 0 0 0];

oriented        oriented;

internalField   nonuniform List<scalar> 
12225
(
0.511113
1.68641e-06
0.511107
6.07493e-06
0.5111
6.9505e-06
0.511096
4.84347e-06
0.511091
4.18109e-06
0.511087
4.8042e-06
0.511081
5.36091e-06
0.511076
5.56962e-06
0.51107
5.75131e-06
0.511064
5.52506e-06
0.511059
5.14496e-06
0.511054
5.34834e-06
0.511048
5.86055e-06
0.511042
5.80423e-06
0.511037
5.45063e-06
0.511031
5.45207e-06
0.511026
5.51232e-06
0.51102
5.37368e-06
0.511015
5.34756e-06
0.51101
5.40268e-06
0.511004
5.58575e-06
0.510998
5.83624e-06
0.510993
5.55954e-06
0.510988
5.03512e-06
0.510983
4.85576e-06
0.510978
5.01559e-06
0.510972
5.3028e-06
0.510967
5.46472e-06
0.510961
5.52051e-06
0.510956
5.54626e-06
0.51095
5.83241e-06
0.510944
6.22675e-06
0.510938
6.03924e-06
0.510932
5.47256e-06
0.510927
5.23695e-06
0.510922
5.16554e-06
0.510917
4.85807e-06
0.510912
4.89974e-06
0.510907
5.37257e-06
0.510901
5.54658e-06
0.510896
5.48242e-06
0.51089
5.65274e-06
0.510884
5.91166e-06
0.510878
5.78414e-06
0.510873
5.60789e-06
0.510867
5.67246e-06
0.510862
5.349e-06
0.510857
4.86162e-06
0.510852
4.93738e-06
0.510847
5.47872e-06
0.510841
5.89488e-06
0.510835
5.80828e-06
0.510829
5.52222e-06
0.510824
5.33282e-06
0.510819
5.35911e-06
0.510813
5.61753e-06
0.510807
5.75048e-06
0.510802
5.54197e-06
0.510796
5.26033e-06
0.510791
5.09142e-06
0.510786
4.98305e-06
0.510781
5.04305e-06
0.510776
5.26352e-06
0.510771
5.43815e-06
0.510765
5.52725e-06
0.51076
5.60665e-06
0.510754
5.68353e-06
0.510748
5.66984e-06
0.510743
5.66215e-06
0.510737
5.63794e-06
0.510731
5.39254e-06
0.510726
5.1495e-06
0.510721
5.10453e-06
0.510716
5.09028e-06
0.510711
4.94883e-06
0.510706
4.97574e-06
0.510701
5.49127e-06
0.510695
6.05051e-06
0.510689
6.0951e-06
0.510683
5.72689e-06
0.510677
5.37208e-06
0.510672
5.25834e-06
0.510667
5.36578e-06
0.510661
5.51911e-06
0.510656
5.63072e-06
0.51065
5.74351e-06
0.510644
5.53593e-06
0.510639
5.08025e-06
0.510634
5.02679e-06
0.510629
5.27868e-06
0.510624
5.35469e-06
0.510618
5.26675e-06
0.510613
5.32294e-06
0.510608
5.45135e-06
0.510602
5.28982e-06
0.510597
4.99619e-06
0.510592
5.00101e-06
0.510587
5.39028e-06
0.510581
5.85359e-06
0.510575
6.07638e-06
0.510569
5.97366e-06
0.510564
5.39222e-06
0.510559
4.60872e-06
0.510555
4.46826e-06
0.51055
4.99208e-06
0.510544
5.4553e-06
0.510538
5.77457e-06
0.510532
5.96533e-06
0.510527
5.71201e-06
0.510521
5.31453e-06
0.510516
5.21977e-06
0.510511
5.4862e-06
0.510505
5.9661e-06
0.510499
6.15081e-06
0.510493
5.95522e-06
0.510487
5.75012e-06
0.510481
5.55786e-06
0.510476
5.44749e-06
0.51047
5.51317e-06
0.510465
5.58112e-06
0.510459
5.62351e-06
0.510453
5.61566e-06
0.510448
5.29719e-06
0.510443
4.85067e-06
0.510439
4.68265e-06
0.510434
4.84475e-06
0.510429
5.31706e-06
0.510423
5.87215e-06
0.510416
6.21652e-06
0.51041
6.26536e-06
0.510404
5.92519e-06
0.510399
5.45675e-06
0.510394
5.20608e-06
0.510388
5.08959e-06
0.510383
5.03905e-06
0.510378
5.1619e-06
0.510373
5.47607e-06
0.510367
5.64708e-06
0.510362
5.40357e-06
0.510357
5.19762e-06
0.510351
5.45288e-06
0.510345
5.87407e-06
0.510339
6.09071e-06
0.510333
5.99721e-06
0.510328
5.56965e-06
0.510322
5.07063e-06
0.510318
4.96526e-06
0.510312
5.33565e-06
0.510306
5.83104e-06
0.5103
6.08148e-06
0.510294
5.83452e-06
0.510289
5.26278e-06
0.510284
4.84603e-06
0.51028
4.81018e-06
0.510275
4.97263e-06
0.510269
5.07891e-06
0.510264
5.24348e-06
0.510259
5.62267e-06
0.510253
5.88629e-06
0.510247
5.82793e-06
0.510241
5.65883e-06
0.510236
5.61401e-06
0.51023
5.72217e-06
0.510224
5.72764e-06
0.510219
5.54526e-06
0.510213
5.30948e-06
0.510208
4.9659e-06
0.510204
4.63674e-06
0.510199
4.73752e-06
0.510194
5.29628e-06
0.510188
5.92946e-06
0.510181
6.3374e-06
0.510175
6.32568e-06
0.510169
5.90482e-06
0.510164
5.35353e-06
0.510159
4.85003e-06
0.510154
4.67595e-06
0.510149
5.1048e-06
0.510143
5.7674e-06
0.510137
5.98738e-06
0.510132
5.58688e-06
0.510127
5.14293e-06
0.510122
5.09582e-06
0.510116
5.17876e-06
0.510111
5.29745e-06
0.510106
5.60719e-06
0.5101
5.82284e-06
0.510094
5.58459e-06
0.510089
5.13946e-06
0.510084
5.01366e-06
0.510079
5.21858e-06
0.510073
5.49204e-06
0.510067
5.78631e-06
0.510061
6.02619e-06
0.510055
6.09809e-06
0.510049
5.91473e-06
0.510044
5.52583e-06
0.510039
5.31203e-06
0.510033
5.39996e-06
0.510028
5.60949e-06
0.510022
5.83165e-06
0.510016
5.82293e-06
0.51001
5.61626e-06
0.510005
5.48992e-06
0.509999
5.37624e-06
0.509994
5.34282e-06
0.509989
5.58565e-06
0.509983
5.90066e-06
0.509977
5.98946e-06
0.509971
5.76431e-06
0.509965
5.43996e-06
0.50996
5.33959e-06
0.509955
5.35829e-06
0.50995
5.226e-06
0.509944
5.09555e-06
0.509939
5.16041e-06
0.509934
5.27613e-06
0.509929
5.26775e-06
0.509924
5.19669e-06
0.509918
5.46606e-06
0.509912
6.06296e-06
0.509906
6.25532e-06
0.5099
5.98319e-06
0.509894
5.69937e-06
0.509889
5.24654e-06
0.509884
4.53709e-06
0.50988
4.09822e-06
0.509876
4.36086e-06
0.509871
5.02793e-06
0.509865
5.52057e-06
0.50986
5.66409e-06
0.509854
5.62194e-06
0.509848
5.54441e-06
0.509843
5.43758e-06
0.509838
5.45259e-06
0.509832
5.75263e-06
0.509826
5.91748e-06
0.50982
5.5987e-06
0.509815
5.07922e-06
0.50981
4.7425e-06
0.509806
4.76528e-06
0.5098
5.17782e-06
0.509795
5.84852e-06
0.509788
6.33683e-06
0.509782
6.29354e-06
0.509776
5.89676e-06
0.509771
5.5213e-06
0.509765
5.37125e-06
0.509759
6.07629e-06
5.67499e-06
0.511118
-1.011e-08
0.511124
3.30971e-07
0.51113
1.18158e-06
0.511132
2.25661e-06
0.511134
2.73731e-06
0.511136
2.66499e-06
0.511139
2.41825e-06
0.511142
2.39836e-06
0.511145
2.59538e-06
0.511148
2.29424e-06
0.511152
1.87293e-06
0.511155
2.23703e-06
0.511158
2.66601e-06
0.511161
2.58493e-06
0.511164
2.50641e-06
0.511167
2.53067e-06
0.51117
2.28255e-06
0.511174
1.88445e-06
0.511177
2.04229e-06
0.51118
2.53249e-06
0.511183
2.57965e-06
0.511186
2.65274e-06
0.511189
2.94358e-06
0.511191
2.918e-06
0.511193
2.81832e-06
0.511195
2.74869e-06
0.511198
2.47172e-06
0.511201
2.10637e-06
0.511205
2.02748e-06
0.511208
2.3838e-06
0.511211
2.6639e-06
0.511215
2.45307e-06
0.511219
2.34454e-06
0.511222
2.5607e-06
0.511224
2.72413e-06
0.511226
2.83295e-06
0.511228
2.90301e-06
0.511231
2.7309e-06
0.511233
2.53444e-06
0.511237
2.2068e-06
0.51124
1.80654e-06
0.511244
1.70159e-06
0.511248
1.83688e-06
0.511252
2.24721e-06
0.511255
2.69911e-06
0.511258
2.69179e-06
0.511261
2.38659e-06
0.511263
2.30642e-06
0.511266
2.56419e-06
0.511269
2.67094e-06
0.511272
2.71834e-06
0.511275
2.90852e-06
0.511277
2.87114e-06
0.51128
2.60868e-06
0.511283
2.37629e-06
0.511286
2.30484e-06
0.51129
2.4089e-06
0.511293
2.50273e-06
0.511295
2.59285e-06
0.511298
2.69679e-06
0.5113
2.40404e-06
0.511303
2.01105e-06
0.511306
2.26523e-06
0.511309
2.75696e-06
0.511312
2.97809e-06
0.511314
3.03366e-06
0.511317
2.97805e-06
0.51132
2.82135e-06
0.511323
2.42056e-06
0.511327
1.95844e-06
0.51133
2.044e-06
0.511332
2.67683e-06
0.511334
3.10214e-06
0.511337
2.94787e-06
0.511339
2.70335e-06
0.511341
2.50689e-06
0.511345
2.09487e-06
0.511349
1.86564e-06
0.511353
2.21683e-06
0.511356
2.75686e-06
0.511358
2.9577e-06
0.511361
2.69021e-06
0.511364
2.23053e-06
0.511367
2.02732e-06
0.511371
1.94149e-06
0.511375
1.81141e-06
0.511378
2.0002e-06
0.511381
2.32177e-06
0.511384
2.43447e-06
0.511387
2.38724e-06
0.51139
2.30715e-06
0.511393
2.50782e-06
0.511395
2.93291e-06
0.511397
3.22296e-06
0.511399
3.33204e-06
0.511401
3.25712e-06
0.511403
2.81971e-06
0.511406
2.19695e-06
0.51141
1.976e-06
0.511414
2.22562e-06
0.511417
2.43873e-06
0.51142
2.60541e-06
0.511422
2.87335e-06
0.511424
2.80924e-06
0.511426
2.22382e-06
0.51143
1.80309e-06
0.511434
2.0785e-06
0.511437
2.63477e-06
0.51144
2.82001e-06
0.511443
2.75711e-06
0.511445
2.76939e-06
0.511448
2.59501e-06
0.511452
2.29438e-06
0.511455
2.36974e-06
0.511459
2.79047e-06
0.511461
3.14348e-06
0.511464
3.10057e-06
0.511466
2.64791e-06
0.51147
2.12746e-06
0.511473
1.85695e-06
0.511477
1.84481e-06
0.511481
2.16416e-06
0.511483
2.80776e-06
0.511485
3.24243e-06
0.511486
3.08997e-06
0.511489
2.48086e-06
0.511492
1.89489e-06
0.511496
1.78728e-06
0.5115
2.08448e-06
0.511504
2.48636e-06
0.511507
2.87031e-06
0.51151
3.07239e-06
0.511512
2.97544e-06
0.511514
2.67383e-06
0.511517
2.46278e-06
0.51152
2.41671e-06
0.511523
2.3719e-06
0.511526
2.36704e-06
0.511529
2.40145e-06
0.511532
2.24917e-06
0.511536
1.89631e-06
0.51154
1.71582e-06
0.511544
2.08271e-06
0.511547
2.82141e-06
0.511549
3.23899e-06
0.511551
2.99179e-06
0.511554
2.39428e-06
0.511557
1.90823e-06
0.511561
1.65505e-06
0.511566
1.61363e-06
0.51157
1.83798e-06
0.511573
2.29062e-06
0.511575
2.77087e-06
0.511577
2.98081e-06
0.511579
2.79992e-06
0.511582
2.50319e-06
0.511584
2.39362e-06
0.511588
2.39051e-06
0.511591
2.34273e-06
0.511595
2.36682e-06
0.511598
2.5212e-06
0.511601
2.66856e-06
0.511604
2.6638e-06
0.511607
2.48799e-06
0.51161
2.40973e-06
0.511613
2.56571e-06
0.511615
2.61646e-06
0.511617
2.45274e-06
0.51162
2.35857e-06
0.511623
2.4302e-06
0.511626
2.4767e-06
0.51163
2.42493e-06
0.511634
2.47757e-06
0.511637
2.59506e-06
0.51164
2.61908e-06
0.511642
2.60742e-06
0.511644
2.6035e-06
0.511647
2.59356e-06
0.51165
2.53034e-06
0.511653
2.4939e-06
0.511656
2.64393e-06
0.511659
2.75341e-06
0.511661
2.57969e-06
0.511664
2.39274e-06
0.511667
2.39288e-06
0.51167
2.33851e-06
0.511674
2.31095e-06
0.511677
2.63099e-06
0.511679
3.02411e-06
0.511681
3.01763e-06
0.511683
2.58357e-06
0.511687
2.12712e-06
0.511691
2.06039e-06
0.511694
2.33755e-06
0.511698
2.71697e-06
0.5117
3.10869e-06
0.511703
3.26021e-06
0.511705
2.98515e-06
0.511708
2.4466e-06
0.511712
1.96325e-06
0.511716
1.87555e-06
0.511719
2.22592e-06
0.511722
2.76401e-06
0.511724
3.12238e-06
0.511727
2.94022e-06
0.51173
2.4123e-06
0.511733
2.12138e-06
0.511737
2.1246e-06
0.511741
2.15287e-06
0.511744
2.19134e-06
0.511748
2.28817e-06
0.511751
2.37225e-06
0.511754
2.31759e-06
0.511757
2.11657e-06
0.51176
2.10095e-06
0.511762
2.56864e-06
0.511764
3.12048e-06
0.511767
3.17723e-06
0.511769
2.89161e-06
0.511772
2.58874e-06
0.511775
2.2924e-06
0.51178
2.04916e-06
0.511784
2.09268e-06
0.511787
2.4435e-06
0.511789
2.78268e-06
0.511791
2.80892e-06
0.511792
2.66783e-06
0.511794
2.71574e-06
0.511796
2.90469e-06
0.511799
2.89456e-06
0.511802
2.69709e-06
0.511805
2.54972e-06
0.511808
2.53176e-06
0.511811
2.56716e-06
0.511814
2.59969e-06
0.511817
2.7644e-06
0.511819
3.11016e-06
0.511822
3.37594e-06
0.511823
3.26905e-06
0.511825
2.82136e-06
0.511828
2.45863e-06
0.51183
2.36571e-06
0.511834
2.39176e-06
0.511838
2.51407e-06
0.511841
2.6806e-06
0.511845
2.71103e-06
0.511847
2.62335e-06
0.51185
2.46246e-06
0.511854
2.12027e-06
2.2301e-06
0.511118
-1.69804e-08
0.511117
4.28496e-07
0.511118
1.10111e-06
0.511118
1.71889e-06
0.511119
1.9722e-06
0.511119
2.06486e-06
0.51112
2.10016e-06
0.51112
2.06189e-06
0.511121
1.85517e-06
0.511121
1.91574e-06
0.511121
2.24057e-06
0.511121
2.1721e-06
0.511121
2.11843e-06
0.511122
2.20407e-06
0.511122
2.19206e-06
0.511123
2.13699e-06
0.511123
2.09989e-06
0.511122
2.16263e-06
0.511122
2.22088e-06
0.511122
2.34287e-06
0.511122
2.60221e-06
0.511123
2.50431e-06
0.511123
2.33159e-06
0.511124
2.52956e-06
0.511124
2.74869e-06
0.511124
2.80899e-06
0.511124
2.4282e-06
0.511124
1.83236e-06
0.511124
1.80331e-06
0.511124
2.12816e-06
0.511125
2.4269e-06
0.511124
2.80405e-06
0.511124
2.62746e-06
0.511125
1.99923e-06
0.511125
1.90818e-06
0.511126
1.9878e-06
0.511127
1.98644e-06
0.511128
2.19474e-06
0.511128
2.21521e-06
0.511128
1.91339e-06
0.511129
1.54445e-06
0.511129
1.44698e-06
0.511129
2.00546e-06
0.511128
2.64686e-06
0.511128
2.66792e-06
0.511128
2.44494e-06
0.511129
2.19819e-06
0.511129
1.92301e-06
0.51113
2.03999e-06
0.51113
2.34401e-06
0.51113
2.50023e-06
0.51113
2.6646e-06
0.51113
2.83128e-06
0.51113
2.85164e-06
0.51113
2.62872e-06
0.51113
2.24786e-06
0.51113
2.00446e-06
0.511131
2.10278e-06
0.511131
2.01251e-06
0.511132
1.64316e-06
0.511133
1.94404e-06
0.511132
2.48249e-06
0.511132
2.49352e-06
0.511132
2.73041e-06
0.511132
3.20305e-06
0.511132
3.10897e-06
0.511132
2.72985e-06
0.511132
2.48908e-06
0.511133
2.07959e-06
0.511133
1.79454e-06
0.511133
1.97908e-06
0.511134
2.14527e-06
0.511134
2.24375e-06
0.511135
2.39738e-06
0.511135
2.55549e-06
0.511135
2.77461e-06
0.511134
2.69499e-06
0.511134
2.10671e-06
0.511135
1.67721e-06
0.511136
1.74617e-06
0.511137
1.89706e-06
0.511137
2.08159e-06
0.511137
2.21145e-06
0.511137
1.89881e-06
0.511138
1.47289e-06
0.511138
1.29584e-06
0.511139
1.43016e-06
0.511139
1.97805e-06
0.511139
2.50166e-06
0.511139
2.57361e-06
0.511139
2.39344e-06
0.511139
2.14301e-06
0.51114
2.01987e-06
0.511141
2.47509e-06
0.511141
3.20734e-06
0.511141
3.39583e-06
0.511141
3.12526e-06
0.51114
2.90052e-06
0.511139
2.47735e-06
0.51114
1.66859e-06
0.511141
1.19391e-06
0.511142
1.52302e-06
0.511143
2.01328e-06
0.511144
2.11809e-06
0.511144
2.10284e-06
0.511144
2.25645e-06
0.511143
2.37838e-06
0.511144
2.30862e-06
0.511144
2.28889e-06
0.511144
2.40694e-06
0.511145
2.49649e-06
0.511145
2.51485e-06
0.511145
2.42358e-06
0.511145
2.16958e-06
0.511146
2.00186e-06
0.511147
2.28009e-06
0.511147
2.78237e-06
0.511147
2.95896e-06
0.511146
2.6983e-06
0.511146
2.29384e-06
0.511145
1.95538e-06
0.511146
1.69265e-06
0.511147
1.60274e-06
0.511148
1.85688e-06
0.511149
2.40593e-06
0.511149
2.77232e-06
0.511148
2.67149e-06
0.511147
2.45516e-06
0.511147
2.2969e-06
0.511148
2.15502e-06
0.511148
2.15179e-06
0.511149
2.20609e-06
0.51115
2.18563e-06
0.51115
2.13839e-06
0.511151
2.19372e-06
0.511151
2.37623e-06
0.511151
2.48863e-06
0.511151
2.4423e-06
0.511151
2.39316e-06
0.511151
2.33102e-06
0.51115
2.05254e-06
0.51115
1.76556e-06
0.511151
1.78995e-06
0.511152
1.90478e-06
0.511153
1.84764e-06
0.511154
1.7084e-06
0.511155
1.71543e-06
0.511155
1.98371e-06
0.511154
2.11944e-06
0.511154
1.83159e-06
0.511154
1.59401e-06
0.511155
1.74614e-06
0.511156
2.01742e-06
0.511156
2.2419e-06
0.511157
2.42361e-06
0.511157
2.46548e-06
0.511157
2.44071e-06
0.511157
2.40773e-06
0.511157
2.27183e-06
0.511157
2.24983e-06
0.511157
2.41846e-06
0.511157
2.43258e-06
0.511158
2.2383e-06
0.511158
1.97205e-06
0.511159
1.73808e-06
0.51116
1.7039e-06
0.511161
1.79512e-06
0.511161
1.99027e-06
0.511161
2.4125e-06
0.511161
2.75849e-06
0.51116
2.6413e-06
0.511161
2.28678e-06
0.511161
2.06593e-06
0.511162
1.94008e-06
0.511162
1.95255e-06
0.511163
2.31277e-06
0.511162
2.78836e-06
0.511162
2.95907e-06
0.511162
2.73695e-06
0.511162
2.41942e-06
0.511162
2.31459e-06
0.511163
2.37007e-06
0.511163
2.43622e-06
0.511163
2.55134e-06
0.511162
2.67865e-06
0.511162
2.49785e-06
0.511162
2.08679e-06
0.511163
2.0675e-06
0.511164
2.39974e-06
0.511164
2.5195e-06
0.511164
2.37489e-06
0.511164
2.28185e-06
0.511164
2.44098e-06
0.511164
2.63306e-06
0.511164
2.61745e-06
0.511164
2.57453e-06
0.511165
2.53533e-06
0.511165
2.37156e-06
0.511166
2.15768e-06
0.511166
1.95244e-06
0.511166
1.85876e-06
0.511166
1.97694e-06
0.511167
2.18361e-06
0.511167
2.32239e-06
0.511168
2.3405e-06
0.511168
2.3204e-06
0.511168
2.35757e-06
0.511168
2.21424e-06
0.511168
1.8456e-06
0.511169
1.69708e-06
0.511169
1.84687e-06
0.511169
1.91608e-06
0.51117
1.81974e-06
0.51117
1.73705e-06
0.511171
1.77892e-06
0.511171
1.8983e-06
0.511172
2.09156e-06
0.511173
2.48796e-06
0.511173
2.9491e-06
0.511173
3.0645e-06
0.511172
2.79262e-06
0.511172
2.48373e-06
0.511171
2.24611e-06
0.511172
1.96307e-06
0.511173
1.83726e-06
0.511174
2.14598e-06
0.511174
2.58876e-06
0.511174
2.79457e-06
0.511174
2.82673e-06
0.511174
2.72419e-06
0.511174
2.47815e-06
0.511174
2.30208e-06
0.511174
2.48983e-06
0.511174
2.97732e-06
0.511173
3.14623e-06
0.511173
2.78232e-06
0.511174
2.44187e-06
0.511175
2.37301e-06
0.511176
2.37136e-06
0.511176
2.42952e-06
0.511176
2.61909e-06
0.511176
2.74154e-06
0.511176
2.55099e-06
0.511176
2.20207e-06
0.511177
2.00512e-06
0.511177
2.12917e-06
0.511177
2.46568e-06
0.511177
2.59103e-06
0.511177
2.31464e-06
2.05464e-06
0.511118
1.34673e-07
0.511118
6.47751e-07
0.511118
1.1535e-06
0.511118
1.45358e-06
0.511118
1.38083e-06
0.511119
1.3569e-06
0.51112
1.57301e-06
0.51112
1.61351e-06
0.51112
1.64676e-06
0.51112
1.88081e-06
0.511121
1.93299e-06
0.511121
1.91128e-06
0.511121
1.96041e-06
0.511121
1.83365e-06
0.511122
1.62331e-06
0.511122
1.68391e-06
0.511123
1.87223e-06
0.511123
2.06137e-06
0.511123
2.28641e-06
0.511123
2.3972e-06
0.511123
2.5002e-06
0.511123
2.41961e-06
0.511123
2.21909e-06
0.511123
2.25251e-06
0.511124
2.26312e-06
0.511124
2.12517e-06
0.511125
2.17239e-06
0.511124
2.29059e-06
0.511124
2.18836e-06
0.511124
2.31725e-06
0.511124
2.52918e-06
0.511124
2.15213e-06
0.511125
1.71351e-06
0.511125
1.76302e-06
0.511126
1.76135e-06
0.511126
1.66392e-06
0.511126
1.69556e-06
0.511127
1.42753e-06
0.511128
1.2552e-06
0.511128
1.5895e-06
0.511128
1.85739e-06
0.511127
2.03479e-06
0.511127
2.12289e-06
0.511128
2.08896e-06
0.511128
1.91811e-06
0.511129
1.5616e-06
0.51113
1.58982e-06
0.51113
2.01611e-06
0.51113
2.28251e-06
0.51113
2.16155e-06
0.51113
1.89468e-06
0.511131
1.96212e-06
0.511132
2.36851e-06
0.511132
2.64152e-06
0.511132
2.27593e-06
0.511133
1.77529e-06
0.511133
1.73981e-06
0.511133
1.60066e-06
0.511134
1.41945e-06
0.511134
1.58405e-06
0.511134
1.81701e-06
0.511135
2.04746e-06
0.511135
2.52008e-06
0.511134
3.00152e-06
0.511134
3.06108e-06
0.511135
2.85206e-06
0.511135
2.51207e-06
0.511135
2.07504e-06
0.511135
1.90527e-06
0.511135
2.15242e-06
0.511135
2.4764e-06
0.511134
2.44774e-06
0.511134
2.10893e-06
0.511135
1.70953e-06
0.511136
1.61646e-06
0.511137
1.97477e-06
0.511137
2.22241e-06
0.511137
2.11033e-06
0.511137
1.89168e-06
0.511137
1.66844e-06
0.511138
1.48704e-06
0.511138
1.36917e-06
0.511139
1.41062e-06
0.511139
1.618e-06
0.511139
1.70289e-06
0.511139
1.50459e-06
0.511139
1.44837e-06
0.511139
1.79168e-06
0.51114
2.14753e-06
0.51114
2.3081e-06
0.51114
2.42839e-06
0.511139
2.52305e-06
0.511139
2.4927e-06
0.511139
2.46954e-06
0.51114
2.54309e-06
0.51114
2.565e-06
0.511141
2.64918e-06
0.511141
2.71011e-06
0.511141
2.37878e-06
0.511141
1.94132e-06
0.51114
1.69666e-06
0.51114
1.55032e-06
0.511141
1.52102e-06
0.511141
1.5089e-06
0.511142
1.52067e-06
0.511143
1.72191e-06
0.511143
1.9636e-06
0.511143
2.20062e-06
0.511143
2.35581e-06
0.511143
2.07547e-06
0.511144
1.79045e-06
0.511145
1.90554e-06
0.511145
1.9605e-06
0.511145
2.09624e-06
0.511145
2.4824e-06
0.511144
2.54547e-06
0.511145
2.27869e-06
0.511146
2.08104e-06
0.511147
2.03613e-06
0.511147
2.1638e-06
0.511146
2.22324e-06
0.511146
1.99994e-06
0.511146
1.72521e-06
0.511146
1.56432e-06
0.511147
1.66394e-06
0.511148
2.05012e-06
0.511148
2.30489e-06
0.511148
2.42118e-06
0.511148
2.52092e-06
0.511148
2.33132e-06
0.511148
2.0303e-06
0.511148
1.88742e-06
0.511149
1.77516e-06
0.511149
1.77447e-06
0.511149
1.97274e-06
0.511149
2.05305e-06
0.51115
1.91011e-06
0.511151
1.9053e-06
0.511151
2.05775e-06
0.511151
1.99858e-06
0.511152
1.70135e-06
0.511152
1.51609e-06
0.511152
1.64342e-06
0.511152
1.76265e-06
0.511152
1.50536e-06
0.511153
1.11217e-06
0.511154
1.02955e-06
0.511154
1.27905e-06
0.511155
1.57335e-06
0.511155
1.73349e-06
0.511155
1.72417e-06
0.511155
1.65059e-06
0.511155
1.67754e-06
0.511156
1.80973e-06
0.511156
1.95946e-06
0.511157
2.1283e-06
0.511157
2.23279e-06
0.511157
2.17939e-06
0.511157
2.07209e-06
0.511158
2.01187e-06
0.511158
2.00659e-06
0.511158
2.0112e-06
0.511159
1.93759e-06
0.511159
1.83233e-06
0.511159
1.77038e-06
0.511159
1.66689e-06
0.511159
1.58859e-06
0.511159
1.76553e-06
0.51116
2.03581e-06
0.51116
2.13083e-06
0.511161
2.17436e-06
0.511161
2.1442e-06
0.511161
1.95504e-06
0.511161
1.81985e-06
0.511161
1.82362e-06
0.511162
1.98781e-06
0.511162
2.31403e-06
0.511162
2.53065e-06
0.511163
2.44801e-06
0.511163
2.2733e-06
0.511163
2.25826e-06
0.511163
2.33227e-06
0.511163
2.38309e-06
0.511163
2.39556e-06
0.511164
2.34238e-06
0.511164
2.27594e-06
0.511164
2.19443e-06
0.511164
2.10025e-06
0.511164
2.0636e-06
0.511164
2.02151e-06
0.511165
2.00363e-06
0.511165
2.18353e-06
0.511165
2.54607e-06
0.511165
2.79856e-06
0.511165
2.6964e-06
0.511165
2.4051e-06
0.511165
2.14528e-06
0.511166
1.94303e-06
0.511166
1.8859e-06
0.511166
1.96685e-06
0.511166
2.12535e-06
0.511165
2.32595e-06
0.511165
2.30002e-06
0.511165
1.97951e-06
0.511166
1.71412e-06
0.511167
1.66679e-06
0.511167
1.72611e-06
0.511168
1.78837e-06
0.511168
1.82705e-06
0.511168
1.8446e-06
0.511168
1.71293e-06
0.511168
1.4018e-06
0.511169
1.29588e-06
0.511169
1.62218e-06
0.511169
1.97187e-06
0.511169
2.01429e-06
0.511169
1.95154e-06
0.511169
1.9837e-06
0.51117
2.05188e-06
0.511171
2.05514e-06
0.511172
2.08829e-06
0.511172
2.22242e-06
0.511172
2.21871e-06
0.511172
2.06065e-06
0.511172
2.06855e-06
0.511172
2.32462e-06
0.511172
2.57692e-06
0.511172
2.56307e-06
0.511172
2.38769e-06
0.511173
2.29244e-06
0.511173
2.19177e-06
0.511173
2.12646e-06
0.511173
2.38844e-06
0.511173
2.80398e-06
0.511174
2.94044e-06
0.511174
2.78569e-06
0.511174
2.4526e-06
0.511174
2.08109e-06
0.511174
2.01619e-06
0.511175
2.229e-06
0.511175
2.39991e-06
0.511175
2.54406e-06
0.511175
2.60907e-06
0.511175
2.43502e-06
0.511175
2.14126e-06
0.511175
1.85831e-06
0.511176
1.65449e-06
0.511177
1.66019e-06
0.511177
1.80423e-06
1.91538e-06
0.511118
6.98423e-08
0.511118
6.07566e-07
0.511118
9.88027e-07
0.511118
1.19403e-06
0.511118
1.32628e-06
0.511119
1.12349e-06
0.511119
1.13345e-06
0.511119
1.46877e-06
0.511119
1.60162e-06
0.51112
1.44765e-06
0.51112
1.33569e-06
0.511121
1.28388e-06
0.511122
1.30749e-06
0.511122
1.40576e-06
0.511122
1.59293e-06
0.511122
1.86356e-06
0.511122
2.06059e-06
0.511122
2.19475e-06
0.511122
2.14146e-06
0.511122
1.80045e-06
0.511123
1.49022e-06
0.511124
1.53088e-06
0.511125
1.92239e-06
0.511125
2.2768e-06
0.511124
2.3654e-06
0.511124
2.29917e-06
0.511124
2.22081e-06
0.511124
2.2381e-06
0.511124
2.38452e-06
0.511124
2.44305e-06
0.511124
2.02549e-06
0.511125
1.5373e-06
0.511125
1.31689e-06
0.511126
1.16106e-06
0.511127
1.23421e-06
0.511127
1.41521e-06
0.511127
1.62352e-06
0.511127
1.80857e-06
0.511126
1.7293e-06
0.511126
1.69699e-06
0.511126
1.77054e-06
0.511126
1.79119e-06
0.511127
1.70113e-06
0.511127
1.41259e-06
0.511128
1.11224e-06
0.511129
1.03982e-06
0.511129
1.44896e-06
0.511129
1.95973e-06
0.511129
2.02529e-06
0.511129
1.97302e-06
0.511129
2.00788e-06
0.511129
1.87412e-06
0.51113
1.64219e-06
0.511131
1.81438e-06
0.511131
2.17583e-06
0.511131
2.18276e-06
0.51113
2.02031e-06
0.51113
1.81065e-06
0.51113
1.51995e-06
0.51113
1.39839e-06
0.51113
1.5723e-06
0.51113
1.94825e-06
0.511131
2.2688e-06
0.511131
2.37714e-06
0.511132
2.447e-06
0.511132
2.55411e-06
0.511133
2.25898e-06
0.511133
1.79792e-06
0.511133
1.76075e-06
0.511133
1.89186e-06
0.511134
2.13301e-06
0.511134
2.32076e-06
0.511134
2.1265e-06
0.511133
1.95423e-06
0.511133
1.82521e-06
0.511134
1.43893e-06
0.511135
1.17474e-06
0.511136
1.3072e-06
0.511136
1.43627e-06
0.511136
1.42118e-06
0.511136
1.39061e-06
0.511137
1.23906e-06
0.511137
1.03301e-06
0.511138
9.20816e-07
0.511138
1.02468e-06
0.511138
1.37473e-06
0.511138
1.6314e-06
0.511138
1.76171e-06
0.511138
1.91519e-06
0.511139
2.0253e-06
0.511139
2.03141e-06
0.51114
2.03574e-06
0.51114
2.29652e-06
0.51114
2.65738e-06
0.51114
2.65899e-06
0.51114
2.34885e-06
0.51114
2.13492e-06
0.511141
2.0924e-06
0.511141
2.00466e-06
0.511141
1.79158e-06
0.511142
1.5131e-06
0.511142
1.33655e-06
0.511142
1.35924e-06
0.511142
1.51494e-06
0.511142
1.73073e-06
0.511142
1.81395e-06
0.511142
1.70199e-06
0.511143
1.6219e-06
0.511143
1.66416e-06
0.511144
1.64897e-06
0.511144
1.49569e-06
0.511144
1.37988e-06
0.511145
1.58544e-06
0.511145
2.11767e-06
0.511145
2.53167e-06
0.511145
2.53116e-06
0.511145
2.21463e-06
0.511145
1.77358e-06
0.511146
1.4353e-06
0.511147
1.39285e-06
0.511147
1.63989e-06
0.511147
1.83218e-06
0.511147
1.78155e-06
0.511147
1.67133e-06
0.511147
1.57027e-06
0.511148
1.57984e-06
0.511148
1.75158e-06
0.511149
1.90833e-06
0.511149
2.02594e-06
0.511149
2.09966e-06
0.51115
1.96945e-06
0.51115
1.68492e-06
0.51115
1.55838e-06
0.51115
1.62897e-06
0.51115
1.71385e-06
0.511151
1.85011e-06
0.511151
1.94687e-06
0.511151
1.80385e-06
0.511151
1.46835e-06
0.511152
1.15026e-06
0.511153
1.19092e-06
0.511152
1.58153e-06
0.511152
1.71274e-06
0.511153
1.34416e-06
0.511153
9.94481e-07
0.511153
1.05978e-06
0.511153
1.25035e-06
0.511153
1.15259e-06
0.511154
9.74497e-07
0.511155
1.08962e-06
0.511155
1.39261e-06
0.511155
1.68816e-06
0.511155
1.8273e-06
0.511155
1.7387e-06
0.511155
1.72644e-06
0.511155
1.87263e-06
0.511156
1.85809e-06
0.511156
1.76118e-06
0.511156
1.79118e-06
0.511156
1.86049e-06
0.511157
1.86876e-06
0.511157
1.67299e-06
0.511157
1.41763e-06
0.511158
1.44149e-06
0.511158
1.49103e-06
0.511158
1.43267e-06
0.511158
1.60953e-06
0.511158
1.85652e-06
0.511158
1.82254e-06
0.511159
1.64177e-06
0.51116
1.55417e-06
0.51116
1.57327e-06
0.51116
1.65017e-06
0.51116
1.82481e-06
0.51116
1.98535e-06
0.51116
1.99465e-06
0.511161
2.02501e-06
0.511161
2.21729e-06
0.511161
2.41778e-06
0.511161
2.41205e-06
0.511161
2.21816e-06
0.511161
2.07434e-06
0.511161
2.04552e-06
0.511162
1.96688e-06
0.511162
1.94113e-06
0.511162
2.18365e-06
0.511162
2.43977e-06
0.511162
2.34606e-06
0.511162
1.94042e-06
0.511162
1.59133e-06
0.511163
1.63573e-06
0.511163
1.93189e-06
0.511163
2.22756e-06
0.511164
2.50919e-06
0.511164
2.59504e-06
0.511164
2.37965e-06
0.511164
2.01779e-06
0.511164
1.65387e-06
0.511165
1.53843e-06
0.511165
1.73649e-06
0.511165
2.00845e-06
0.511165
2.1752e-06
0.511165
2.08606e-06
0.511165
1.84637e-06
0.511165
1.71483e-06
0.511166
1.51069e-06
0.511166
1.16594e-06
0.511167
1.04774e-06
0.511167
1.24731e-06
0.511168
1.48109e-06
0.511168
1.47305e-06
0.511168
1.28111e-06
0.511168
1.22357e-06
0.511168
1.34902e-06
0.511169
1.50769e-06
0.511169
1.69739e-06
0.511169
1.88618e-06
0.511169
1.87717e-06
0.51117
1.65699e-06
0.51117
1.51255e-06
0.511171
1.55555e-06
0.511171
1.6743e-06
0.511172
1.86348e-06
0.511172
2.05886e-06
0.511172
2.11646e-06
0.511172
2.14216e-06
0.511172
2.25362e-06
0.511172
2.33594e-06
0.511173
2.31981e-06
0.511173
2.2782e-06
0.511172
2.38395e-06
0.511172
2.59969e-06
0.511172
2.45554e-06
0.511173
1.98245e-06
0.511174
1.81504e-06
0.511175
1.97105e-06
0.511175
2.12641e-06
0.511175
2.27687e-06
0.511174
2.40234e-06
0.511174
2.40877e-06
0.511174
2.23777e-06
0.511175
2.0934e-06
0.511175
2.195e-06
0.511175
2.35584e-06
0.511175
2.30894e-06
0.511175
1.98256e-06
0.511175
1.55081e-06
0.511175
1.39818e-06
0.511176
1.53717e-06
1.60825e-06
0.511118
7.53949e-10
0.511118
1.94263e-07
0.511119
4.22425e-07
0.511119
8.77743e-07
0.511119
8.4968e-07
0.51112
8.38362e-07
0.51112
1.21313e-06
0.51112
1.39381e-06
0.51112
1.18868e-06
0.511121
9.07121e-07
0.511121
9.22074e-07
0.511121
9.42638e-07
0.511122
8.11921e-07
0.511122
1.08114e-06
0.511122
1.78452e-06
0.511122
2.22557e-06
0.511121
2.44217e-06
0.511121
2.38647e-06
0.511121
1.81572e-06
0.511122
1.24398e-06
0.511122
1.15793e-06
0.511122
1.39097e-06
0.511123
1.74333e-06
0.511123
1.87255e-06
0.511124
1.71789e-06
0.511124
1.56931e-06
0.511125
1.52346e-06
0.511126
1.86163e-06
0.511126
2.19985e-06
0.511126
1.94421e-06
0.511127
1.57029e-06
0.511127
1.4483e-06
0.511126
1.59118e-06
0.511126
1.7409e-06
0.511126
1.54766e-06
0.511126
1.23669e-06
0.511126
1.09538e-06
0.511127
1.25474e-06
0.511127
1.55375e-06
0.511127
1.77699e-06
0.511127
1.88722e-06
0.511127
1.79858e-06
0.511127
1.4204e-06
0.511128
9.06179e-07
0.511128
7.13716e-07
0.511128
9.57548e-07
0.511128
1.24577e-06
0.511129
1.24829e-06
0.51113
1.06741e-06
0.511131
1.18396e-06
0.511131
1.43121e-06
0.511132
1.67084e-06
0.511131
1.81406e-06
0.511132
1.62874e-06
0.511132
1.4181e-06
0.511133
1.51505e-06
0.511133
1.65595e-06
0.511134
1.55559e-06
0.511134
1.56531e-06
0.511133
1.644e-06
0.511133
1.65796e-06
0.511133
1.97407e-06
0.511133
2.34316e-06
0.511133
2.46537e-06
0.511133
2.40352e-06
0.511133
2.19555e-06
0.511134
1.94923e-06
0.511134
1.67563e-06
0.511134
1.63569e-06
0.511134
1.88187e-06
0.511134
1.86322e-06
0.511135
1.57786e-06
0.511135
1.64707e-06
0.511135
1.96902e-06
0.511135
1.80188e-06
0.511136
1.24693e-06
0.511136
9.73018e-07
0.511136
1.1122e-06
0.511136
1.28423e-06
0.511136
1.16306e-06
0.511137
9.6457e-07
0.511137
8.94359e-07
0.511137
8.34325e-07
0.511138
8.49649e-07
0.511138
1.04319e-06
0.511138
1.36372e-06
0.511138
1.60504e-06
0.511138
1.7479e-06
0.511138
1.80948e-06
0.511138
1.67953e-06
0.511139
1.52348e-06
0.511139
1.63478e-06
0.511139
1.96909e-06
0.51114
2.2005e-06
0.51114
2.34454e-06
0.51114
2.51295e-06
0.51114
2.4072e-06
0.51114
1.8866e-06
0.51114
1.36582e-06
0.511141
1.29634e-06
0.511141
1.48295e-06
0.511141
1.53924e-06
0.511141
1.48956e-06
0.511141
1.3872e-06
0.511141
1.26763e-06
0.511142
1.30188e-06
0.511142
1.36158e-06
0.511142
1.30395e-06
0.511143
1.27247e-06
0.511143
1.19919e-06
0.511144
9.37828e-07
0.511144
8.89986e-07
0.511145
1.24689e-06
0.511145
1.70844e-06
0.511145
2.11714e-06
0.511146
2.31415e-06
0.511146
2.20813e-06
0.511145
2.0117e-06
0.511145
1.82253e-06
0.511145
1.52001e-06
0.511145
1.19545e-06
0.511146
1.14403e-06
0.511146
1.40083e-06
0.511146
1.63601e-06
0.511146
1.68949e-06
0.511146
1.78213e-06
0.511146
1.88471e-06
0.511146
1.74361e-06
0.511147
1.43967e-06
0.511148
1.19279e-06
0.511148
1.17564e-06
0.511149
1.36011e-06
0.511149
1.53676e-06
0.511149
1.59519e-06
0.511149
1.45293e-06
0.51115
1.31164e-06
0.51115
1.52082e-06
0.51115
1.75675e-06
0.51115
1.51972e-06
0.51115
1.07728e-06
0.51115
9.75819e-07
0.511151
1.15017e-06
0.511151
1.10919e-06
0.511152
7.96428e-07
0.511152
6.66632e-07
0.511152
8.61665e-07
0.511153
1.05564e-06
0.511153
1.05164e-06
0.511153
9.21495e-07
0.511153
8.34797e-07
0.511153