/*--------------------------------*- C++ -*----------------------------------*\
| =========                 |                                                 |
| \\      /  F ield         | OpenFOAM: The Open Source CFD Toolbox           |
|  \\    /   O peration     | Version:  2406                                  |
|   \\  /    A nd           | Website:  www.openfoam.com                      |
|    \\/     M anipulation  |                                                 |
\*---------------------------------------------------------------------------*/
FoamFile
{
    version     2.0;
    format      ascii;
    arch        "LSB;label=32;scalar=64";
    class       volVectorField;
    location    "1.85";
    object      U;
}
// * * * * * * * * * * * * * * * * * * * * * * * * * * * * * * * * * * * * * //

dimensions      [0 1 -1 0 0 0 0];

internalField   nonuniform List<vector> 
6250
(
(50.5459 9.93721e-05 0)
(85.458 0.000510986 0)
(73.2872 0.000758145 0)
(60.6406 0.00073888 0)
(59.8958 0.00065692 0)
(63.3552 0.000654109 0)
(64.8649 0.000702872 0)
(64.4135 0.000755595 0)
(63.7963 0.000813845 0)
(63.6935 0.000821301 0)
(63.8361 0.000780753 0)
(63.9204 0.000782705 0)
(63.9098 0.000832309 0)
(63.8802 0.000859837 0)
(63.8714 0.000856468 0)
(63.8761 0.000856176 0)
(63.8798 0.000857918 0)
(63.8793 0.000857749 0)
(63.8774 0.000874046 0)
(63.8762 0.000888068 0)
(63.8757 0.000888329 0)
(63.8752 0.000890188 0)
(63.8745 0.000866565 0)
(63.8738 0.000818176 0)
(63.8731 0.000789362 0)
(63.8726 0.000794865 0)
(63.8719 0.000821454 0)
(63.8712 0.000850466 0)
(63.8706 0.000869621 0)
(63.8698 0.000881665 0)
(63.8691 0.000922339 0)
(63.8684 0.000980571 0)
(63.8676 0.000987218 0)
(63.8669 0.000932323 0)
(63.8662 0.000875188 0)
(63.8655 0.000836091 0)
(63.8649 0.000792283 0)
(63.8644 0.000777665 0)
(63.8637 0.000818965 0)
(63.863 0.000874842 0)
(63.8623 0.000929486 0)
(63.8617 0.00100069 0)
(63.8609 0.00106802 0)
(63.8601 0.00107304 0)
(63.8595 0.00102373 0)
(63.8588 0.000972753 0)
(63.858 0.000912268 0)
(63.8574 0.000846249 0)
(63.8569 0.000823316 0)
(63.8562 0.000861355 0)
(63.8554 0.000930874 0)
(63.8547 0.000979451 0)
(63.854 0.000985619 0)
(63.8533 0.000975477 0)
(63.8527 0.000973178 0)
(63.852 0.000977635 0)
(63.8513 0.000974933 0)
(63.8505 0.000948539 0)
(63.8499 0.000907825 0)
(63.8492 0.000882759 0)
(63.8486 0.000877035 0)
(63.848 0.000889084 0)
(63.8474 0.000908631 0)
(63.8467 0.000902908 0)
(63.846 0.000872824 0)
(63.8453 0.000856078 0)
(63.8446 0.000873781 0)
(63.8439 0.000909255 0)
(63.8432 0.000947613 0)
(63.8425 0.000979302 0)
(63.8417 0.000978055 0)
(63.8411 0.000937016 0)
(63.8405 0.00088003 0)
(63.8398 0.000840518 0)
(63.8392 0.000842584 0)
(63.8386 0.000889283 0)
(63.838 0.00096401 0)
(63.8372 0.00102291 0)
(63.8365 0.00101964 0)
(63.8357 0.000961118 0)
(63.835 0.000906983 0)
(63.8344 0.000898656 0)
(63.8337 0.000932243 0)
(63.833 0.000978264 0)
(63.8323 0.0010091 0)
(63.8316 0.00102045 0)
(63.8309 0.000998974 0)
(63.8302 0.000941769 0)
(63.8296 0.000890306 0)
(63.829 0.000872605 0)
(63.8283 0.000872907 0)
(63.8276 0.000871932 0)
(63.827 0.000880233 0)
(63.8263 0.00090047 0)
(63.8256 0.000903295 0)
(63.825 0.000877924 0)
(63.8244 0.000852843 0)
(63.8237 0.000871702 0)
(63.823 0.000935588 0)
(63.8223 0.000992424 0)
(63.8215 0.00100155 0)
(63.8208 0.000955675 0)
(63.8201 0.000883832 0)
(63.8196 0.000848594 0)
(63.819 0.000881048 0)
(63.8184 0.000946959 0)
(63.8177 0.00100677 0)
(63.8169 0.00103344 0)
(63.8162 0.00100229 0)
(63.8155 0.000940661 0)
(63.8149 0.000905817 0)
(63.8142 0.000925465 0)
(63.8135 0.000983513 0)
(63.8127 0.00102228 0)
(63.8119 0.00100859 0)
(63.8112 0.000968016 0)
(63.8105 0.000941945 0)
(63.8098 0.000957287 0)
(63.8091 0.00100147 0)
(63.8084 0.00103036 0)
(63.8077 0.00102175 0)
(63.807 0.000984628 0)
(63.8063 0.000926517 0)
(63.8057 0.000866038 0)
(63.8051 0.000838908 0)
(63.8045 0.000861927 0)
(63.8039 0.000926271 0)
(63.8032 0.000997026 0)
(63.8024 0.00104093 0)
(63.8016 0.00105165 0)
(63.8009 0.00102699 0)
(63.8002 0.000983136 0)
(63.7995 0.000951275 0)
(63.7989 0.00093802 0)
(63.7983 0.000938629 0)
(63.7976 0.000955791 0)
(63.797 0.000990057 0)
(63.7962 0.0010173 0)
(63.7955 0.00100725 0)
(63.7949 0.000981711 0)
(63.7942 0.000985771 0)
(63.7935 0.00101633 0)
(63.7928 0.00104031 0)
(63.792 0.00103689 0)
(63.7913 0.000999914 0)
(63.7906 0.000948955 0)
(63.79 0.000929451 0)
(63.7894 0.000966166 0)
(63.7887 0.00103709 0)
(63.7879 0.00109523 0)
(63.7872 0.00109628 0)
(63.7865 0.00103343 0)
(63.7858 0.000949544 0)
(63.7852 0.00089624 0)
(63.7846 0.000891064 0)
(63.784 0.000912552 0)
(63.7834 0.000942525 0)
(63.7827 0.000976201 0)
(63.7819 0.000995934 0)
(63.7812 0.000992123 0)
(63.7805 0.000979263 0)
(63.7798 0.000982071 0)
(63.7791 0.00100535 0)
(63.7784 0.00101819 0)
(63.7777 0.00100026 0)
(63.777 0.00095656 0)
(63.7763 0.000896588 0)
(63.7757 0.000850727 0)
(63.7752 0.000860965 0)
(63.7746 0.000932852 0)
(63.7738 0.00102499 0)
(63.7731 0.00109036 0)
(63.7723 0.00110225 0)
(63.7715 0.00106231 0)
(63.7708 0.00100043 0)
(63.7702 0.000946545 0)
(63.7696 0.000925499 0)
(63.769 0.000952634 0)
(63.7683 0.00100698 0)
(63.7675 0.00103627 0)
(63.7668 0.00100802 0)
(63.7662 0.000956801 0)
(63.7655 0.000931915 0)
(63.7649 0.000933087 0)
(63.7642 0.000950038 0)
(63.7636 0.000986809 0)
(63.7628 0.00102658 0)
(63.7621 0.00102461 0)
(63.7614 0.000972872 0)
(63.7608 0.000925081 0)
(63.7602 0.000917339 0)
(63.7595 0.000947773 0)
(63.7588 0.00100352 0)
(63.7581 0.00105556 0)
(63.7573 0.00107861 0)
(63.7565 0.00105876 0)
(63.7558 0.00100507 0)
(63.7552 0.000965835 0)
(63.7545 0.000971374 0)
(63.7538 0.00100636 0)
(63.7531 0.00103642 0)
(63.7523 0.00102403 0)
(63.7516 0.000978526 0)
(63.751 0.000948989 0)
(63.7502 0.000953132 0)
(63.7496 0.000987193 0)
(63.749 0.00104205 0)
(63.7482 0.00108646 0)
(63.7474 0.00109207 0)
(63.7467 0.0010562 0)
(63.746 0.00100899 0)
(63.7453 0.000991194 0)
(63.7447 0.000996606 0)
(63.744 0.000991848 0)
(63.7434 0.000974536 0)
(63.7427 0.000952206 0)
(63.7421 0.000926297 0)
(63.7414 0.000905791 0)
(63.7408 0.000905868 0)
(63.7401 0.000953693 0)
(63.7394 0.00104095 0)
(63.7386 0.0011003 0)
(63.7378 0.00110344 0)
(63.7371 0.00107234 0)
(63.7364 0.00100519 0)
(63.7358 0.000902449 0)
(63.7353 0.000812968 0)
(63.7348 0.000790229 0)
(63.7342 0.000828582 0)
(63.7335 0.000882424 0)
(63.7328 0.000923883 0)
(63.7321 0.000951324 0)
(63.7314 0.000969287 0)
(63.7307 0.000974645 0)
(63.73 0.000980621 0)
(63.7294 0.00100937 0)
(63.7286 0.00103204 0)
(63.7279 0.00100278 0)
(63.7272 0.000934424 0)
(63.7266 0.000877342 0)
(63.726 0.000865361 0)
(63.7254 0.000904166 0)
(63.7247 0.000979137 0)
(63.7239 0.00104707 0)
(63.7231 0.00106296 0)
(63.7224 0.0010293 0)
(63.7217 0.00099502 0)
(63.721 0.000995853 0)
(63.7204 0.00109149 0)
(63.7193 0.00110593 0)
(50.546 8.21428e-05 0)
(85.459 0.000387792 0)
(73.2901 0.000586845 0)
(60.645 0.000575368 0)
(59.9009 0.000528792 0)
(63.3609 0.000529751 0)
(64.8715 0.000530176 0)
(64.4211 0.000542114 0)
(63.8051 0.000581711 0)
(63.7035 0.000552878 0)
(63.8471 0.000475766 0)
(63.9324 0.000486054 0)
(63.923 0.000551524 0)
(63.8945 0.000557903 0)
(63.8868 0.000521669 0)
(63.8925 0.00050902 0)
(63.8974 0.00049162 0)
(63.898 0.000447756 0)
(63.8971 0.000443986 0)
(63.897 0.000478903 0)
(63.8975 0.000501975 0)
(63.8981 0.000529761 0)
(63.8986 0.000538529 0)
(63.8987 0.000497718 0)
(63.899 0.000454073 0)
(63.8992 0.000444912 0)
(63.8995 0.000452407 0)
(63.8999 0.000455224 0)
(63.9004 0.000467596 0)
(63.9008 0.000488741 0)
(63.9012 0.000507558 0)
(63.9016 0.000511812 0)
(63.9021 0.000492708 0)
(63.9026 0.000479674 0)
(63.9028 0.000490484 0)
(63.9032 0.000499088 0)
(63.9035 0.000479078 0)
(63.9036 0.000459165 0)
(63.904 0.000460062 0)
(63.9044 0.00043398 0)
(63.9048 0.000387207 0)
(63.9053 0.000377241 0)
(63.9058 0.000396741 0)
(63.9063 0.0004125 0)
(63.9066 0.000430167 0)
(63.907 0.000446421 0)
(63.9074 0.000423345 0)
(63.9078 0.000393737 0)
(63.9081 0.00041221 0)
(63.9083 0.000449636 0)
(63.9088 0.000474614 0)
(63.9092 0.000473803 0)
(63.9095 0.00044374 0)
(63.9098 0.00040529 0)
(63.9102 0.00038139 0)
(63.9106 0.00038895 0)
(63.911 0.000410708 0)
(63.9114 0.000414831 0)
(63.9117 0.000413121 0)
(63.9121 0.000422833 0)
(63.9124 0.000410791 0)
(63.9127 0.000384368 0)
(63.9131 0.000401399 0)
(63.9135 0.000449978 0)
(63.9138 0.000485601 0)
(63.9141 0.000500126 0)
(63.9144 0.000505672 0)
(63.9148 0.000497603 0)
(63.9151 0.000460814 0)
(63.9156 0.000416621 0)
(63.9161 0.00039988 0)
(63.9164 0.000419877 0)
(63.9167 0.000439127 0)
(63.9169 0.000417934 0)
(63.9172 0.000377676 0)
(63.9175 0.000356926 0)
(63.9178 0.000370473 0)
(63.9183 0.000414955 0)
(63.9189 0.00046786 0)
(63.9193 0.000493137 0)
(63.9196 0.00047897 0)
(63.9199 0.00044186 0)
(63.9203 0.000405324 0)
(63.9207 0.000392065 0)
(63.9211 0.000395361 0)
(63.9216 0.000401045 0)
(63.9222 0.000400493 0)
(63.9225 0.000386913 0)
(63.9228 0.000383658 0)
(63.9231 0.000397448 0)
(63.9235 0.000409474 0)
(63.9239 0.000427452 0)
(63.9242 0.000463502 0)
(63.9245 0.000492801 0)
(63.9248 0.000481701 0)
(63.925 0.000442891 0)
(63.9252 0.000405505 0)
(63.9255 0.000388118 0)
(63.926 0.000408135 0)
(63.9265 0.000451378 0)
(63.927 0.000476745 0)
(63.9274 0.000456461 0)
(63.9277 0.000407834 0)
(63.9278 0.00037047 0)
(63.9281 0.000346842 0)
(63.9285 0.000332518 0)
(63.929 0.000359672 0)
(63.9294 0.000416888 0)
(63.9298 0.000434659 0)
(63.9302 0.000414696 0)
(63.9305 0.000407688 0)
(63.9308 0.000419088 0)
(63.9312 0.000443173 0)
(63.9317 0.000472689 0)
(63.9321 0.000498395 0)
(63.9325 0.000509391 0)
(63.9328 0.000478762 0)
(63.9331 0.000414749 0)
(63.9335 0.000364048 0)
(63.934 0.000348735 0)
(63.9344 0.00036431 0)
(63.9349 0.000401988 0)
(63.9353 0.000434932 0)
(63.9355 0.000435 0)
(63.9357 0.000402759 0)
(63.9359 0.000357961 0)
(63.9363 0.000340617 0)
(63.9368 0.000371889 0)
(63.9373 0.000422275 0)
(63.9378 0.000458324 0)
(63.9383 0.000462671 0)
(63.9386 0.000443026 0)
(63.9388 0.000416441 0)
(63.9391 0.000383162 0)
(63.9395 0.000352739 0)
(63.9398 0.000341244 0)
(63.9401 0.000350288 0)
(63.9405 0.000361951 0)
(63.941 0.000352623 0)
(63.9413 0.000334626 0)
(63.9417 0.000338062 0)
(63.9422 0.000368971 0)
(63.9427 0.000422317 0)
(63.9432 0.000475785 0)
(63.9435 0.000482298 0)
(63.9438 0.000428947 0)
(63.944 0.000363131 0)
(63.9444 0.000328188 0)
(63.9449 0.000324578 0)
(63.9455 0.000334249 0)
(63.946 0.000342097 0)
(63.9465 0.000343837 0)
(63.9467 0.000346834 0)
(63.947 0.000354004 0)
(63.9472 0.000355703 0)
(63.9475 0.00035091 0)
(63.9479 0.000364383 0)
(63.9482 0.000401576 0)
(63.9487 0.000425224 0)
(63.9491 0.000421367 0)
(63.9495 0.000410723 0)
(63.9499 0.00040917 0)
(63.9503 0.000414996 0)
(63.9507 0.000410461 0)
(63.9511 0.000402978 0)
(63.9515 0.000405023 0)
(63.9518 0.000389623 0)
(63.952 0.000352935 0)
(63.9523 0.000338461 0)
(63.9526 0.000365573 0)
(63.953 0.000403477 0)
(63.9535 0.000426796 0)
(63.954 0.000433076 0)
(63.9545 0.000416134 0)
(63.9548 0.000379272 0)
(63.9552 0.000336563 0)
(63.9554 0.000310623 0)
(63.9556 0.000329069 0)
(63.956 0.000376817 0)
(63.9565 0.000404394 0)
(63.9569 0.000393169 0)
(63.9572 0.000370659 0)
(63.9575 0.000358679 0)
(63.9578 0.000353024 0)
(63.9582 0.000354877 0)
(63.9585 0.000364997 0)
(63.959 0.000381325 0)
(63.9595 0.000397533 0)
(63.9597 0.0003991 0)
(63.9599 0.000389525 0)
(63.9602 0.000371611 0)
(63.9606 0.000352804 0)
(63.9611 0.000361059 0)
(63.9616 0.000394547 0)
(63.962 0.000434596 0)
(63.9624 0.000463323 0)
(63.9627 0.000454808 0)
(63.963 0.00041682 0)
(63.9633 0.000376333 0)
(63.9637 0.000353655 0)
(63.9642 0.000367472 0)
(63.9647 0.000400443 0)
(63.9651 0.000427473 0)
(63.9654 0.000440976 0)
(63.9657 0.000415314 0)
(63.966 0.000364116 0)
(63.9664 0.000347109 0)
(63.9669 0.000368409 0)
(63.9674 0.000387328 0)
(63.9679 0.000383483 0)
(63.9683 0.000366762 0)
(63.9686 0.000357434 0)
(63.969 0.00034841 0)
(63.9694 0.000324918 0)
(63.9698 0.000320123 0)
(63.9701 0.000367093 0)
(63.9704 0.000425559 0)
(63.9707 0.000432569 0)
(63.971 0.000390804 0)
(63.9712 0.000363914 0)
(63.9717 0.000375361 0)
(63.9722 0.00037994 0)
(63.9727 0.000372747 0)
(63.9732 0.000386341 0)
(63.9735 0.000391547 0)
(63.9738 0.000350354 0)
(63.974 0.000303078 0)
(63.9741 0.000317521 0)
(63.9744 0.000382844 0)
(63.9747 0.000427598 0)
(63.975 0.000426677 0)
(63.9754 0.000408846 0)
(63.9758 0.000396958 0)
(63.9762 0.000383238 0)
(63.9765 0.000374444 0)
(63.9769 0.000404691 0)
(63.9773 0.000453018 0)
(63.9776 0.000462499 0)
(63.9778 0.000421598 0)
(63.978 0.000361931 0)
(63.9783 0.000329675 0)
(63.9786 0.000346888 0)
(63.979 0.000401555 0)
(63.9795 0.00045923 0)
(63.98 0.00047614 0)
(63.9804 0.000440003 0)
(63.9808 0.00038456 0)
(63.9811 0.000340443 0)
(63.9814 0.000354071 0)
(63.9822 0.000353498 0)
(50.546 3.28058e-06 0)
(85.4588 -2.39247e-05 0)
(73.289 -2.41723e-05 0)
(60.6432 3.82995e-05 0)
(59.899 0.000123741 0)
(63.359 0.000171551 0)
(64.8693 0.000166708 0)
(64.4186 0.000143118 0)
(63.8022 0.000106976 0)
(63.7004 7.69596e-05 0)
(63.8435 8.24012e-05 0)
(63.9283 0.000121221 0)
(63.9186 0.000149235 0)
(63.8898 0.000139379 0)
(63.8816 0.000129641 0)
(63.8871 0.000135237 0)
(63.8917 0.000123937 0)
(63.8918 9.91823e-05 0)
(63.8904 0.000103947 0)
(63.8899 0.000140524 0)
(63.8902 0.000164629 0)
(63.8903 0.000165594 0)
(63.8905 0.000172992 0)
(63.8904 0.000199497 0)
(63.8904 0.000238049 0)
(63.8905 0.000261801 0)
(63.8904 0.00022095 0)
(63.8905 0.000131243 0)
(63.8905 9.4127e-05 0)
(63.8905 0.000135086 0)
(63.8905 0.000174498 0)
(63.8906 0.000175464 0)
(63.8905 0.000145204 0)
(63.8905 0.000120162 0)
(63.8906 0.000138359 0)
(63.8907 0.000172047 0)
(63.8909 0.000200597 0)
(63.8909 0.000226618 0)
(63.891 0.000233146 0)
(63.891 0.000188559 0)
(63.891 0.000107856 0)
(63.8911 6.09174e-05 0)
(63.8911 8.4236e-05 0)
(63.891 0.000154285 0)
(63.891 0.000205876 0)
(63.8911 0.000211156 0)
(63.8911 0.000190816 0)
(63.8911 0.00018468 0)
(63.8912 0.00022102 0)
(63.8912 0.000251113 0)
(63.8912 0.000251021 0)
(63.8913 0.000252457 0)
(63.8913 0.000252112 0)
(63.8913 0.000237625 0)
(63.8912 0.000219586 0)
(63.8912 0.000212567 0)
(63.8913 0.000215064 0)
(63.8913 0.000228328 0)
(63.8914 0.000233123 0)
(63.8915 0.000207443 0)
(63.8917 0.000176979 0)
(63.8916 0.000155427 0)
(63.8915 0.000160318 0)
(63.8916 0.000213282 0)
(63.8915 0.000276422 0)
(63.8915 0.000292185 0)
(63.8915 0.000266041 0)
(63.8915 0.000228298 0)
(63.8916 0.000160627 0)
(63.8917 9.55858e-05 0)
(63.8916 0.000108604 0)
(63.8916 0.000190433 0)
(63.8918 0.000274372 0)
(63.8918 0.000310563 0)
(63.8919 0.000308486 0)
(63.8919 0.000283941 0)
(63.8918 0.000213314 0)
(63.8917 0.000125756 0)
(63.8918 0.00010853 0)
(63.8919 0.000166676 0)
(63.892 0.000217018 0)
(63.8922 0.000221043 0)
(63.8922 0.000186451 0)
(63.8921 0.000128471 0)
(63.8922 7.46681e-05 0)
(63.8922 4.87913e-05 0)
(63.8923 7.80664e-05 0)
(63.8924 0.000157109 0)
(63.8924 0.00022795 0)
(63.8924 0.000244151 0)
(63.8924 0.000222565 0)
(63.8924 0.00020939 0)
(63.8924 0.000221728 0)
(63.8926 0.000265725 0)
(63.8926 0.000324008 0)
(63.8926 0.000346412 0)
(63.8926 0.000316696 0)
(63.8926 0.000256604 0)
(63.8924 0.000189328 0)
(63.8924 0.000128076 0)
(63.8926 9.99106e-05 0)
(63.8928 0.000138253 0)
(63.8928 0.000217001 0)
(63.8929 0.000259687 0)
(63.893 0.000239522 0)
(63.893 0.000213335 0)
(63.8929 0.000222804 0)
(63.8929 0.000243542 0)
(63.893 0.000252178 0)
(63.893 0.000263142 0)
(63.8931 0.000279937 0)
(63.8931 0.00026297 0)
(63.8931 0.000205592 0)
(63.8931 0.000160795 0)
(63.8931 0.000169593 0)
(63.8933 0.000227843 0)
(63.8934 0.000281588 0)
(63.8934 0.000271414 0)
(63.8933 0.000203717 0)
(63.8932 0.000134765 0)
(63.8932 0.00010379 0)
(63.8932 0.000124832 0)
(63.8933 0.000193902 0)
(63.8935 0.000273182 0)
(63.8936 0.00031737 0)
(63.8937 0.000294638 0)
(63.8935 0.000223009 0)
(63.8935 0.000175438 0)
(63.8934 0.000173347 0)
(63.8934 0.000191465 0)
(63.8935 0.000225094 0)
(63.8936 0.000260019 0)
(63.8937 0.000271033 0)
(63.8938 0.00025945 0)
(63.8938 0.000252477 0)
(63.8939 0.000260524 0)
(63.8938 0.000263306 0)
(63.8938 0.000253183 0)
(63.8938 0.000240914 0)
(63.8938 0.00022019 0)
(63.8938 0.000176555 0)
(63.8938 0.000138676 0)
(63.8938 0.000152024 0)
(63.8938 0.00020026 0)
(63.894 0.000232074 0)
(63.8942 0.000230465 0)
(63.8943 0.00021667 0)
(63.8944 0.000208913 0)
(63.8943 0.000187532 0)
(63.8943 0.000142248 0)
(63.8943 0.000123248 0)
(63.8943 0.000171374 0)
(63.8944 0.000256251 0)
(63.8945 0.000320967 0)
(63.8946 0.000329796 0)
(63.8946 0.000292056 0)
(63.8946 0.000252742 0)
(63.8946 0.000230296 0)
(63.8946 0.000213377 0)
(63.8946 0.000218115 0)
(63.8946 0.000249407 0)
(63.8946 0.000266038 0)
(63.8947 0.0002462 0)
(63.8948 0.000204654 0)
(63.8948 0.000179121 0)
(63.8949 0.00019525 0)
(63.895 0.000222363 0)
(63.8951 0.000240398 0)
(63.8951 0.000266437 0)
(63.8951 0.00028663 0)
(63.8951 0.00026804 0)
(63.895 0.000224691 0)
(63.8951 0.000203859 0)
(63.8952 0.00021196 0)
(63.8953 0.000232916 0)
(63.8953 0.00026916 0)
(63.8953 0.000308975 0)
(63.8953 0.00032441 0)
(63.8952 0.000300393 0)
(63.8952 0.000264006 0)
(63.8953 0.000257609 0)
(63.8953 0.000270905 0)
(63.8954 0.00027232 0)
(63.8954 0.000270476 0)
(63.8953 0.000276509 0)
(63.8953 0.000256873 0)
(63.8953 0.000215457 0)
(63.8953 0.000225357 0)
(63.8954 0.000286922 0)
(63.8955 0.000322102 0)
(63.8955 0.000298648 0)
(63.8955 0.000251049 0)
(63.8955 0.000229579 0)
(63.8954 0.000233757 0)
(63.8954 0.000244334 0)
(63.8955 0.000272521 0)
(63.8956 0.000300463 0)
(63.8956 0.000290907 0)
(63.8957 0.00024141 0)
(63.8957 0.000177301 0)
(63.8957 0.000145524 0)
(63.8957 0.000175364 0)
(63.8958 0.000244658 0)
(63.8959 0.000303582 0)
(63.896 0.000304326 0)
(63.896 0.000257784 0)
(63.896 0.000219623 0)
(63.896 0.000192925 0)
(63.896 0.000161607 0)
(63.8961 0.000156415 0)
(63.8961 0.000187891 0)
(63.8961 0.000219355 0)
(63.8962 0.000222412 0)
(63.8963 0.000199475 0)
(63.8963 0.000188887 0)
(63.8963 0.000229413 0)
(63.8965 0.000296614 0)
(63.8966 0.000344183 0)
(63.8967 0.000360425 0)
(63.8966 0.000339363 0)
(63.8965 0.00028086 0)
(63.8965 0.000215713 0)
(63.8964 0.000180096 0)
(63.8964 0.00018135 0)
(63.8966 0.000208133 0)
(63.8967 0.000253344 0)
(63.8967 0.000302475 0)
(63.8967 0.000342449 0)
(63.8967 0.00036463 0)
(63.8967 0.000349129 0)
(63.8967 0.000301886 0)
(63.8968 0.000262448 0)
(63.8968 0.000262883 0)
(63.8968 0.00029458 0)
(63.8967 0.000308533 0)
(63.8966 0.000290269 0)
(63.8967 0.000281035 0)
(63.8968 0.000300758 0)
(63.8969 0.000319535 0)
(63.897 0.000312832 0)
(63.897 0.000300793 0)
(63.897 0.000290643 0)
(63.8969 0.000259372 0)
(63.897 0.000223313 0)
(63.897 0.000218659 0)
(63.8971 0.000249824 0)
(63.8972 0.00029173 0)
(63.8972 0.000298751 0)
(63.8971 0.000232392 0)
(63.8971 0.000186163 0)
(50.5462 3.00287e-06 0)
(85.4588 6.9474e-05 0)
(73.2889 0.000172555 0)
(60.6432 0.000257711 0)
(59.899 0.000278337 0)
(63.3589 0.000284062 0)
(64.8693 0.000308067 0)
(64.4186 0.000316989 0)
(63.8022 0.000308843 0)
(63.7002 0.000335406 0)
(63.8434 0.000380379 0)
(63.9284 0.000390631 0)
(63.9186 0.000381779 0)
(63.8898 0.000368338 0)
(63.8816 0.000354787 0)
(63.8871 0.00035452 0)
(63.8917 0.000363928 0)
(63.8918 0.000385955 0)
(63.8905 0.000412179 0)
(63.89 0.00043217 0)
(63.8902 0.000457064 0)
(63.8904 0.000447482 0)
(63.8904 0.00041406 0)
(63.8904 0.000409473 0)
(63.8904 0.000411571 0)
(63.8905 0.000392878 0)
(63.8906 0.000355842 0)
(63.8906 0.000325923 0)
(63.8905 0.000329829 0)
(63.8905 0.000372929 0)
(63.8904 0.000428261 0)
(63.8904 0.00045832 0)
(63.8906 0.000442622 0)
(63.8907 0.00039893 0)
(63.8906 0.000360381 0)
(63.8907 0.000325417 0)
(63.8908 0.000299317 0)
(63.8908 0.000274928 0)
(63.8909 0.00026055 0)
(63.8911 0.000276346 0)
(63.891 0.000297855 0)
(63.8909 0.000332219 0)
(63.8909 0.000396 0)
(63.8909 0.000451307 0)
(63.891 0.00044221 0)
(63.8911 0.000381362 0)
(63.8913 0.000330683 0)
(63.8912 0.000306858 0)
(63.8912 0.000312357 0)
(63.8912 0.000326627 0)
(63.8912 0.000343245 0)
(63.8913 0.000387813 0)
(63.8914 0.000442316 0)
(63.8915 0.000464198 0)
(63.8915 0.000410694 0)
(63.8916 0.000323634 0)
(63.8916 0.000283236 0)
(63.8916 0.000277679 0)
(63.8917 0.000265304 0)
(63.8918 0.000261355 0)
(63.8917 0.00031483 0)
(63.8918 0.000397437 0)
(63.8919 0.000457331 0)
(63.8918 0.000503618 0)
(63.8918 0.000518239 0)
(63.8918 0.000475378 0)
(63.8918 0.000407218 0)
(63.8919 0.000360152 0)
(63.892 0.000340265 0)
(63.8919 0.000351525 0)
(63.8918 0.00037947 0)
(63.8918 0.000366939 0)
(63.8918 0.000322134 0)
(63.8918 0.000292779 0)
(63.892 0.000310757 0)
(63.8921 0.000377671 0)
(63.8922 0.000418285 0)
(63.8922 0.000384805 0)
(63.8921 0.000322619 0)
(63.8921 0.000282104 0)
(63.8922 0.000266757 0)
(63.8922 0.00027666 0)
(63.8923 0.000311126 0)
(63.8924 0.000336188 0)
(63.8924 0.000327007 0)
(63.8924 0.000292766 0)
(63.8924 0.000280646 0)
(63.8924 0.000325155 0)
(63.8924 0.000376233 0)
(63.8925 0.000382739 0)
(63.8925 0.000364653 0)
(63.8925 0.000350829 0)
(63.8924 0.000346159 0)
(63.8923 0.000374149 0)
(63.8924 0.000430209 0)
(63.8925 0.000452574 0)
(63.8926 0.000444139 0)
(63.8926 0.000436771 0)
(63.8926 0.000396842 0)
(63.8927 0.00031682 0)
(63.8926 0.00025506 0)
(63.8925 0.00025141 0)
(63.8926 0.000272614 0)
(63.8927 0.000270231 0)
(63.8927 0.000267609 0)
(63.8928 0.000305675 0)
(63.8928 0.000348932 0)
(63.8929 0.0003601 0)
(63.8929 0.000352779 0)
(63.8928 0.00033054 0)
(63.893 0.000318637 0)
(63.8931 0.000338654 0)
(63.8931 0.000354039 0)
(63.8932 0.000355656 0)
(63.8931 0.000361245 0)
(63.893 0.000371746 0)
(63.8931 0.000394097 0)
(63.8932 0.000420408 0)
(63.8933 0.000433299 0)
(63.8933 0.000431107 0)
(63.8933 0.000397316 0)
(63.8933 0.000326757 0)
(63.8933 0.000261985 0)
(63.8932 0.000242824 0)
(63.8933 0.000285213 0)
(63.8935 0.000355898 0)
(63.8935 0.000390926 0)
(63.8935 0.000393756 0)
(63.8935 0.000384469 0)
(63.8934 0.000353114 0)
(63.8935 0.000320714 0)
(63.8935 0.000302232 0)
(63.8935 0.000285333 0)
(63.8936 0.000279863 0)
(63.8936 0.000304711 0)
(63.8937 0.000337351 0)
(63.8937 0.000345916 0)
(63.8938 0.000347336 0)
(63.8938 0.000358959 0)
(63.8939 0.000354627 0)
(63.8939 0.000316052 0)
(63.894 0.000279244 0)
(63.894 0.000281342 0)
(63.894 0.000290132 0)
(63.894 0.000259695 0)
(63.8941 0.000208726 0)
(63.8942 0.000195146 0)
(63.8943 0.000241409 0)
(63.8944 0.000299918 0)
(63.8944 0.00031559 0)
(63.8944 0.000295323 0)
(63.8944 0.00027519 0)
(63.8944 0.000269571 0)
(63.8945 0.000278701 0)
(63.8945 0.000300209 0)
(63.8946 0.000323882 0)
(63.8946 0.000338658 0)
(63.8946 0.000337009 0)
(63.8947 0.000322982 0)
(63.8947 0.000319499 0)
(63.8947 0.000332678 0)
(63.8948 0.00033862 0)
(63.8948 0.000325735 0)
(63.8949 0.000300287 0)
(63.8948 0.000272803 0)
(63.8948 0.000252022 0)
(63.8949 0.000240386 0)
(63.8949 0.000256514 0)
(63.8949 0.000306201 0)
(63.895 0.000353066 0)
(63.8951 0.000367422 0)
(63.8951 0.00034965 0)
(63.8951 0.000318568 0)
(63.8951 0.000290556 0)
(63.8951 0.000279661 0)
(63.8952 0.000308992 0)
(63.8952 0.000367346 0)
(63.8953 0.000399273 0)
(63.8953 0.00037569 0)
(63.8954 0.000337028 0)
(63.8954 0.000330031 0)
(63.8954 0.000340432 0)
(63.8954 0.000345024 0)
(63.8954 0.000352297 0)
(63.8954 0.000363466 0)
(63.8955 0.000354721 0)
(63.8955 0.000321926 0)
(63.8954 0.000304601 0)
(63.8955 0.000310671 0)
(63.8955 0.000305622 0)
(63.8956 0.000291747 0)
(63.8956 0.000305137 0)
(63.8956 0.000358043 0)
(63.8956 0.000405178 0)
(63.8956 0.000400051 0)
(63.8956 0.000364772 0)
(63.8956 0.00033163 0)
(63.8957 0.000307842 0)
(63.8957 0.000301803 0)
(63.8957 0.000305957 0)
(63.8957 0.000311699 0)
(63.8957 0.000321374 0)
(63.8956 0.000317549 0)
(63.8956 0.000292194 0)
(63.8957 0.000274236 0)
(63.8958 0.000288721 0)
(63.8959 0.000324361 0)
(63.896 0.000339115 0)
(63.896 0.00031629 0)
(63.8959 0.000290117 0)
(63.8959 0.000272917 0)
(63.896 0.000247474 0)
(63.8961 0.000231632 0)
(63.8961 0.000249179 0)
(63.8961 0.000276265 0)
(63.8961 0.000278965 0)
(63.8961 0.000267098 0)
(63.8961 0.00028133 0)
(63.8962 0.000329371 0)
(63.8963 0.000368014 0)
(63.8965 0.000377485 0)
(63.8965 0.000379451 0)
(63.8965 0.000370375 0)
(63.8965 0.000335037 0)
(63.8965 0.000306789 0)
(63.8964 0.000324598 0)
(63.8965 0.000360473 0)
(63.8964 0.00036339 0)
(63.8965 0.000338934 0)
(63.8966 0.000317568 0)
(63.8966 0.000302123 0)
(63.8966 0.000297973 0)
(63.8967 0.000337636 0)
(63.8967 0.000417372 0)
(63.8967 0.0004619 0)
(63.8967 0.000431749 0)
(63.8967 0.000368795 0)
(63.8967 0.000312626 0)
(63.8968 0.000285784 0)
(63.8968 0.000297617 0)
(63.8968 0.000335463 0)
(63.8969 0.000372743 0)
(63.8969 0.000371402 0)
(63.8968 0.000326683 0)
(63.8968 0.000280416 0)
(63.8968 0.00026708 0)
(63.8969 0.000287632 0)
(63.897 0.000313801 0)
(63.8971 0.00032319 0)
(63.8971 0.000317336 0)
(50.5461 1.00114e-05 0)
(85.4589 9.09844e-05 0)
(73.289 0.000158689 0)
(60.6433 0.00017491 0)
(59.899 0.000151102 0)
(63.3588 0.000118053 0)
(64.8692 0.000114948 0)
(64.4185 0.000130753 0)
(63.8021 0.000149611 0)
(63.7001 0.000164061 0)
(63.8434 0.000156196 0)
(63.9283 0.000130229 0)
(63.9186 0.000122397 0)
(63.8899 0.000120922 0)
(63.8817 0.00011095 0)
(63.8871 0.000122288 0)
(63.8916 0.000141156 0)
(63.8916 0.000161847 0)
(63.8903 0.000181514 0)
(63.8899 0.000180041 0)
(63.8902 0.000173347 0)
(63.8905 0.000163696 0)
(63.8906 0.000170949 0)
(63.8906 0.000205005 0)
(63.8906 0.000221856 0)
(63.8905 0.00021224 0)
(63.8905 0.00020952 0)
(63.8905 0.000221506 0)
(63.8905 0.000225889 0)
(63.8905 0.000225752 0)
(63.8905 0.000195624 0)
(63.8906 0.000117738 0)
(63.8907 5.25896e-05 0)
(63.8907 4.88637e-05 0)
(63.8908 7.98225e-05 0)
(63.8908 0.000109195 0)
(63.8909 0.000139885 0)
(63.8909 0.00013979 0)
(63.8907 0.000110747 0)
(63.8907 0.000113768 0)
(63.8908 0.000136267 0)
(63.8907 0.000151499 0)
(63.8908 0.00014132 0)
(63.8909 0.000106491 0)
(63.891 7.60275e-05 0)
(63.8911 6.22207e-05 0)
(63.8911 0.000103155 0)
(63.8911 0.000180625 0)
(63.8911 0.000222846 0)
(63.8912 0.000211857 0)
(63.8912 0.000175208 0)
(63.8911 0.000150029 0)
(63.8912 0.000153409 0)
(63.8913 0.00018514 0)
(63.8914 0.00019562 0)
(63.8913 0.000173363 0)
(63.8913 0.000161405 0)
(63.8913 0.000135796 0)
(63.8913 9.95821e-05 0)
(63.8912 9.58737e-05 0)
(63.8913 0.000122997 0)
(63.8913 0.000159784 0)
(63.8913 0.000196666 0)
(63.8913 0.000226728 0)
(63.8915 0.000243012 0)
(63.8915 0.000250292 0)
(63.8915 0.000223585 0)
(63.8916 0.00017342 0)
(63.8916 0.000159179 0)
(63.8916 0.000185884 0)
(63.8917 0.000227058 0)
(63.8917 0.000239441 0)
(63.8917 0.00020671 0)
(63.8917 0.000163771 0)
(63.8916 0.000133828 0)
(63.8916 0.000124986 0)
(63.8918 0.000130771 0)
(63.8919 0.000140655 0)
(63.892 0.000145018 0)
(63.892 0.000137549 0)
(63.8921 0.000120239 0)
(63.8921 9.24369e-05 0)
(63.8921 6.86225e-05 0)
(63.8921 6.32485e-05 0)
(63.8923 7.5976e-05 0)
(63.8923 9.28062e-05 0)
(63.8923 0.000107835 0)
(63.8923 0.000137893 0)
(63.8923 0.00017411 0)
(63.8923 0.000202058 0)
(63.8924 0.00022443 0)
(63.8924 0.000240287 0)
(63.8925 0.000256243 0)
(63.8925 0.000270996 0)
(63.8924 0.000260656 0)
(63.8925 0.00022392 0)
(63.8925 0.000208927 0)
(63.8926 0.000220326 0)
(63.8927 0.000206809 0)
(63.8927 0.000172377 0)
(63.8927 0.000147444 0)
(63.8927 0.000133027 0)
(63.8927 0.000125114 0)
(63.8928 0.000124924 0)
(63.8927 0.000136844 0)
(63.8927 0.000151673 0)
(63.8927 0.000155693 0)
(63.8928 0.000170255 0)
(63.8929 0.000199053 0)
(63.8929 0.000193316 0)
(63.893 0.000159896 0)
(63.893 0.000147816 0)
(63.8931 0.000160181 0)
(63.8931 0.000201625 0)
(63.8931 0.000253703 0)
(63.8931 0.000255326 0)
(63.8931 0.000197378 0)
(63.8931 0.000125846 0)
(63.8932 8.61926e-05 0)
(63.8933 0.00010171 0)
(63.8934 0.000149101 0)
(63.8934 0.000175676 0)
(63.8934 0.000166853 0)
(63.8934 0.000145583 0)
(63.8934 0.000138967 0)
(63.8934 0.000161477 0)
(63.8935 0.000191355 0)
(63.8935 0.000215235 0)
(63.8936 0.000236346 0)
(63.8937 0.000237032 0)
(63.8937 0.000214541 0)
(63.8937 0.000184323 0)
(63.8937 0.000161354 0)
(63.8938 0.000159143 0)
(63.8938 0.000172723 0)
(63.8938 0.000179917 0)
(63.8938 0.000166316 0)
(63.8938 0.000147904 0)
(63.8938 0.000137862 0)
(63.894 0.000124068 0)
(63.8941 0.000113707 0)
(63.8941 0.00012608 0)
(63.894 0.000146327 0)
(63.8941 0.000141885 0)
(63.8942 0.000111358 0)
(63.8942 8.84729e-05 0)
(63.8941 8.81404e-05 0)
(63.8941 8.82373e-05 0)
(63.8942 8.63225e-05 0)
(63.8943 0.000103068 0)
(63.8944 0.000132298 0)
(63.8944 0.000156143 0)
(63.8943 0.000167404 0)
(63.8943 0.000166154 0)
(63.8944 0.00017384 0)
(63.8944 0.000200752 0)
(63.8944 0.000220439 0)
(63.8945 0.0002206 0)
(63.8945 0.000211899 0)
(63.8945 0.000198984 0)
(63.8946 0.000184453 0)
(63.8946 0.000164768 0)
(63.8946 0.000148682 0)
(63.8947 0.000155916 0)
(63.8947 0.000168043 0)
(63.8948 0.000165729 0)
(63.8948 0.000171775 0)
(63.8948 0.000197039 0)
(63.8948 0.000210387 0)
(63.8948 0.000192757 0)
(63.8949 0.000173683 0)
(63.895 0.000171107 0)
(63.895 0.000170783 0)
(63.8951 0.000174707 0)
(63.8951 0.000185312 0)
(63.895 0.000197839 0)
(63.895 0.000218594 0)
(63.8951 0.000242104 0)
(63.8951 0.000248982 0)
(63.8951 0.000238566 0)
(63.8951 0.000230263 0)
(63.8951 0.00023343 0)
(63.8952 0.000239705 0)
(63.8952 0.000234277 0)
(63.8953 0.000223164 0)
(63.8953 0.000230657 0)
(63.8953 0.000246448 0)
(63.8952 0.000244094 0)
(63.8952 0.000222009 0)
(63.8953 0.000196291 0)
(63.8953 0.000194509 0)
(63.8954 0.000223191 0)
(63.8954 0.000266747 0)
(63.8955 0.000304634 0)
(63.8955 0.000305827 0)
(63.8955 0.000268955 0)
(63.8955 0.00021827 0)
(63.8955 0.000172393 0)
(63.8955 0.000158657 0)
(63.8956 0.00018215 0)
(63.8956 0.000221391 0)
(63.8956 0.0002576 0)
(63.8956 0.000257359 0)
(63.8957 0.000216906 0)
(63.8957 0.000178846 0)
(63.8957 0.000150246 0)
(63.8957 0.000118307 0)
(63.8958 0.000103055 0)
(63.8959 0.000122164 0)
(63.8959 0.000157812 0)
(63.896 0.00016585 0)
(63.896 0.000132542 0)
(63.896 0.000111017 0)
(63.896 0.000140996 0)
(63.8961 0.000187438 0)
(63.8962 0.000210554 0)
(63.8962 0.000217444 0)
(63.8962 0.000217164 0)
(63.8962 0.000200444 0)
(63.8963 0.000171895 0)
(63.8963 0.000158034 0)
(63.8964 0.000170446 0)
(63.8965 0.000188048 0)
(63.8965 0.000195801 0)
(63.8965 0.000206677 0)
(63.8965 0.000236396 0)