/*--------------------------------*- C++ -*----------------------------------*\
| =========                 |                                                 |
| \\      /  F ield         | OpenFOAM: The Open Source CFD Toolbox           |
|  \\    /   O peration     | Version:  2406                                  |
|   \\  /    A nd           | Website:  www.openfoam.com                      |
|    \\/     M anipulation  |                                                 |
\*---------------------------------------------------------------------------*/
FoamFile
{
    version     2.0;
    format      ascii;
    arch        "LSB;label=32;scalar=64";
    class       surfaceScalarField;
    location    "0.35";
    object      alphaPhi0.air;
}
// * * * * * * * * * * * * * * * * * * * * * * * * * * * * * * * * * * * * * //

dimensions      [0 3 -1 0 0 0 0];

oriented        oriented;

internalField   nonuniform List<scalar> 
12225
(
0.386166
6.43527e-07
0.386161
5.20164e-06
0.386154
7.07306e-06
0.386149
4.96773e-06
0.386145
4.1485e-06
0.38614
4.14768e-06
0.386136
4.86548e-06
0.38613
5.61348e-06
0.386124
6.24479e-06
0.386118
5.70271e-06
0.386113
5.40707e-06
0.386107
5.4138e-06
0.386102
5.25563e-06
0.386097
4.61879e-06
0.386093
3.80786e-06
0.38609
3.57573e-06
0.386086
4.07709e-06
0.386081
4.49922e-06
0.386077
4.65271e-06
0.386071
5.22022e-06
0.386066
5.91169e-06
0.386059
6.30203e-06
0.386053
6.60918e-06
0.386046
6.79215e-06
0.38604
6.15141e-06
0.386034
5.29298e-06
0.386029
5.03918e-06
0.386024
4.9083e-06
0.38602
4.37981e-06
0.386016
4.21991e-06
0.386011
5.12621e-06
0.386004
6.54769e-06
0.385997
7.36199e-06
0.38599
7.08488e-06
0.385983
6.44271e-06
0.385977
5.89184e-06
0.385972
5.38729e-06
0.385967
5.05963e-06
0.385962
5.12256e-06
0.385956
5.57659e-06
0.38595
6.24724e-06
0.385943
6.77459e-06
0.385936
6.83542e-06
0.38593
6.43295e-06
0.385924
5.72842e-06
0.385919
4.89205e-06
0.385915
4.22737e-06
0.385911
4.09801e-06
0.385907
4.43225e-06
0.385902
4.6627e-06
0.385897
4.45727e-06
0.385893
4.00821e-06
0.38589
3.52448e-06
0.385887
2.92456e-06
0.385885
2.21907e-06
0.385883
1.78387e-06
0.385881
1.95718e-06
0.385879
2.36748e-06
0.385876
2.46382e-06
0.385874
2.21312e-06
0.385872
1.85835e-06
0.385871
1.39799e-06
0.38587
7.67071e-07
0.38587
2.09733e-07
0.38587
1.86349e-07
0.385869
8.56767e-07
0.385867
1.44764e-06
0.385866
1.35463e-06
0.385865
8.5551e-07
0.385865
4.5895e-07
0.385864
2.8907e-07
0.385864
3.9207e-07
0.385863
4.49835e-07
0.385863
4.20867e-07
0.385863
4.28773e-07
0.385862
4.99924e-07
0.385862
5.27906e-07
0.385861
3.84495e-07
0.385861
1.50223e-07
0.385861
2.96892e-08
0.385861
9.06031e-08
0.385861
2.6387e-07
0.38586
3.13819e-07
0.38586
2.15768e-07
0.38586
1.55235e-07
0.38586
2.12954e-07
0.385859
2.80174e-07
0.385859
2.17375e-07
0.385859
4.53866e-08
0.385859
-1.01316e-07
0.385859
-1.67702e-07
0.38586
-2.23773e-07
0.38586
-3.27159e-07
0.38586
-4.74358e-07
0.385861
-6.10649e-07
0.385862
-7.30804e-07
0.385863
-8.25361e-07
0.385864
-8.79383e-07
0.385864
-8.67541e-07
0.385865
-8.07454e-07
0.385866
-7.38154e-07
0.385867
-6.69322e-07
0.385867
-5.99332e-07
0.385868
-5.42742e-07
0.385868
-5.435e-07
0.385869
-6.13796e-07
0.38587
-6.82909e-07
0.38587
-6.47613e-07
0.385871
-4.94503e-07
0.385871
-3.53163e-07
0.385871
-3.84356e-07
0.385872
-6.1941e-07
0.385873
-9.10726e-07
0.385874
-1.08416e-06
0.385875
-1.095e-06
0.385876
-1.06303e-06
0.385877
-1.12227e-06
0.385879
-1.30515e-06
0.38588
-1.56088e-06
0.385882
-1.82211e-06
0.385884
-2.02125e-06
0.385886
-2.07686e-06
0.385888
-1.93562e-06
0.38589
-1.6548e-06
0.385891
-1.39792e-06
0.385892
-1.29004e-06
0.385894
-1.27948e-06
0.385895
-1.18563e-06
0.385896
-9.08653e-07
0.385896
-5.49751e-07
0.385897
-3.14448e-07
0.385897
-2.98069e-07
0.385897
-4.01447e-07
0.385898
-4.33845e-07
0.385898
-2.99454e-07
0.385898
-9.55179e-08
0.385898
4.61196e-08
0.385898
2.84859e-08
0.385898
-1.00722e-07
0.385898
-2.46098e-07
0.385899
-3.22509e-07
0.385899
-2.96859e-07
0.385899
-1.92634e-07
0.385899
-3.95426e-08
0.385899
6.82199e-08
0.385899
7.2098e-08
0.385899
-2.268e-08
0.385899
-1.78258e-07
0.3859
-3.24116e-07
0.3859
-4.07023e-07
0.385901
-3.94416e-07
0.385901
-2.78269e-07
0.385901
-1.17417e-07
0.385901
3.43068e-09
0.385901
2.093e-08
0.385901
-9.54602e-08
0.385901
-2.86435e-07
0.385902
-4.16453e-07
0.385902
-4.12568e-07
0.385902
-2.59085e-07
0.385902
2.96343e-09
0.385902
3.29489e-07
0.385901
6.02702e-07
0.385901
7.70432e-07
0.3859
7.81442e-07
0.385899
6.20807e-07
0.385899
3.60302e-07
0.385899
1.31473e-07
0.385899
7.74907e-08
0.385898
2.4942e-07
0.385898
5.31512e-07
0.385897
7.56258e-07
0.385896
8.25294e-07
0.385896
7.54037e-07
0.385895
6.17765e-07
0.385894
4.63166e-07
0.385894
2.98349e-07
0.385894
1.50378e-07
0.385894
7.22329e-08
0.385894
8.98955e-08
0.385894
2.36831e-07
0.385893
4.25049e-07
0.385893
5.37552e-07
0.385892
5.38035e-07
0.385892
4.56177e-07
0.385891
3.47591e-07
0.385891
2.37252e-07
0.385891
1.32123e-07
0.385891
5.36202e-08
0.385891
3.88812e-08
0.385891
1.06692e-07
0.385891
2.36485e-07
0.38589
3.75507e-07
0.38589
4.66366e-07
0.385889
4.79484e-07
0.385889
4.15868e-07
0.385888
3.02935e-07
0.385888
1.85594e-07
0.385888
1.04929e-07
0.385888
7.5104e-08
0.385888
8.17472e-08
0.385888
1.17052e-07
0.385888
1.6675e-07
0.385888
2.33027e-07
0.385887
2.99769e-07
0.385887
3.27893e-07
0.385887
2.84199e-07
0.385886
1.79109e-07
0.385886
7.08996e-08
0.385886
-2.04646e-08
0.385886
-8.38603e-08
0.385887
-1.48066e-07
0.385887
-2.05867e-07
0.385887
-2.13536e-07
0.385887
-1.44056e-07
0.385887
-2.52645e-08
0.385887
7.34007e-08
0.385887
1.09864e-07
0.385887
9.41357e-08
0.385887
7.64893e-08
0.385887
8.38147e-08
0.385887
8.28993e-08
0.385887
1.48586e-08
0.385887
-9.76534e-08
0.385887
-1.74823e-07
0.385887
-1.62108e-07
0.385887
-8.0852e-08
0.385887
-8.29342e-09
0.385887
8.37829e-09
0.385887
-1.72016e-08
0.385887
-3.9403e-08
0.385887
-2.28051e-08
0.385887
2.54578e-09
0.385887
-2.644e-08
0.385887
-1.40535e-07
0.385888
-3.22405e-07
0.385888
-5.36249e-07
0.385889
-7.50174e-07
0.38589
-9.37573e-07
0.385891
-1.08334e-06
0.385892
-1.17564e-06
0.385893
-1.19693e-06
0.385895
-1.14468e-06
0.385896
-1.04417e-06
0.385897
-9.26459e-07
0.385897
-8.09869e-07
0.385898
-6.88524e-07
0.385899
-5.8864e-07
0.385899
-4.18546e-07
-4.2088e-07
0.386168
8.55162e-07
0.386172
1.28007e-06
0.386177
1.71058e-06
0.386179
2.46534e-06
0.386181
2.8283e-06
0.386183
1.99699e-06
0.386186
2.27347e-06
0.386189
2.00846e-06
0.386194
1.83992e-06
0.386197
2.34774e-06
0.3862
2.31732e-06
0.386203
2.06641e-06
0.386206
2.32969e-06
0.386208
2.85392e-06
0.386209
3.30465e-06
0.386209
3.23875e-06
0.38621
2.92273e-06
0.386212
2.80808e-06
0.386214
2.35637e-06
0.386218
1.51058e-06
0.386223
9.79856e-07
0.386228
8.67968e-07
0.386234
8.49229e-07
0.386239
1.33216e-06
0.386243
2.09551e-06
0.386246
2.76227e-06
0.386247
3.43688e-06
0.386248
4.34414e-06
0.386247
4.94601e-06
0.386247
4.38282e-06
0.386249
3.03076e-06
0.386254
1.79292e-06
0.38626
1.08843e-06
0.386267
8.46222e-07
0.386272
8.994e-07
0.386277
1.17248e-06
0.386281
1.77054e-06
0.386283
2.52693e-06
0.386285
3.01222e-06
0.386288
3.00822e-06
0.386291
2.70294e-06
0.386296
2.42205e-06
0.3863
2.35201e-06
0.386304
2.46815e-06
0.386307
2.61067e-06
0.38631
2.48004e-06
0.386312
1.92416e-06
0.386315
1.32558e-06
0.386318
1.25315e-06
0.386321
1.69095e-06
0.386323
2.19868e-06
0.386325
2.56284e-06
0.386325
2.88393e-06
0.386325
3.11592e-06
0.386324
3.00911e-06
0.386323
2.60389e-06
0.386323
2.35336e-06
0.386323
2.43911e-06
0.386323
2.51091e-06
0.386323
2.36027e-06
0.386322
2.33393e-06
0.386321
2.74472e-06
0.386318
3.25396e-06
0.386315
3.25093e-06
0.386313
2.71365e-06
0.386311
2.31218e-06
0.386311
2.37046e-06
0.386309
2.60777e-06
0.386307
2.65118e-06
0.386305
2.46398e-06
0.386304
2.20919e-06
0.386302
2.05532e-06
0.3863
2.01168e-06
0.386299
2.04804e-06
0.386297
2.11506e-06
0.386295
2.16001e-06
0.386294
2.18941e-06
0.386292
2.23895e-06
0.38629
2.298e-06
0.386287
2.30947e-06
0.386285
2.25594e-06
0.386283
2.20503e-06
0.386281
2.20155e-06
0.386279
2.2525e-06
0.386277
2.36381e-06
0.386275
2.50246e-06
0.386273
2.56279e-06
0.38627
2.44274e-06
0.386268
2.20403e-06
0.386266
2.0538e-06
0.386264
2.08756e-06
0.386261
2.14658e-06
0.386259
2.01482e-06
0.386257
1.69401e-06
0.386255
1.40293e-06
0.386253
1.30262e-06
0.386251
1.33359e-06
0.386249
1.32551e-06
0.386246
1.19795e-06
0.386245
1.01011e-06
0.386243
8.6899e-07
0.386242
8.31007e-07
0.38624
8.93536e-07
0.386238
1.03454e-06
0.386237
1.2191e-06
0.386235
1.38603e-06
0.386233
1.46868e-06
0.38623
1.44128e-06
0.386229
1.32792e-06
0.386227
1.17344e-06
0.386226
9.82902e-07
0.386224
7.28482e-07
0.386223
4.27986e-07
0.386222
1.4903e-07
0.386221
-4.1965e-08
0.38622
-2.05416e-07
0.386219
-4.21062e-07
0.386219
-6.88317e-07
0.386218
-8.99991e-07
0.386217
-9.53486e-07
0.386216
-8.67658e-07
0.386215
-7.4298e-07
0.386213
-6.31243e-07
0.386212
-4.96591e-07
0.386211
-3.06843e-07
0.38621
-1.22213e-07
0.386209
-5.38589e-08
0.386208
-9.1179e-08
0.386207
-1.40557e-07
0.386206
-1.17714e-07
0.386206
-4.86236e-08
0.386206
-2.66781e-08
0.386205
-9.53922e-08
0.386205
-1.75014e-07
0.386205
-1.40176e-07
0.386205
3.15268e-08
0.386205
2.58702e-07
0.386204
3.83969e-07
0.386204
3.40482e-07
0.386203
1.75137e-07
0.386203
-5.66757e-09
0.386203
-1.29763e-07
0.386203
-1.88372e-07
0.386203
-2.15863e-07
0.386204
-2.69048e-07
0.386204
-3.83881e-07
0.386204
-5.43727e-07
0.386205
-6.91174e-07
0.386205
-7.59692e-07
0.386206
-7.24899e-07
0.386206
-6.06053e-07
0.386206
-4.49243e-07
0.386206
-3.04751e-07
0.386207
-2.09135e-07
0.386207
-1.89312e-07
0.386207
-2.71183e-07
0.386207
-4.16786e-07
0.386207
-5.28747e-07
0.386207
-5.24535e-07
0.386207
-3.95751e-07
0.386208
-2.21253e-07
0.386208
-6.68818e-08
0.386209
-3.99048e-09
0.386209
-1.95192e-08
0.38621
-6.03398e-08
0.386211
-1.14614e-07
0.386212
-1.97902e-07
0.386212
-3.40468e-07
0.386213
-4.95323e-07
0.386213
-5.64042e-07
0.386214
-4.94835e-07
0.386216
-3.31891e-07
0.386217
-1.85288e-07
0.386217
-1.40795e-07
0.386218
-1.94959e-07
0.386219
-2.86717e-07
0.38622
-3.59401e-07
0.38622
-4.0689e-07
0.386221
-4.39722e-07
0.386221
-4.42835e-07
0.386222
-3.70092e-07
0.386223
-2.10934e-07
0.386223
-1.16554e-08
0.386223
1.61702e-07
0.386224
2.72999e-07
0.386224
3.32315e-07
0.386224
3.6135e-07
0.386223
3.65485e-07
0.386223
3.44052e-07
0.386223
3.17614e-07
0.386222
3.33259e-07
0.386222
4.33022e-07
0.386222
6.19837e-07
0.386222
8.55625e-07
0.386221
1.08708e-06
0.38622
1.26936e-06
0.386219
1.37774e-06
0.386218
1.41132e-06
0.386217
1.39182e-06
0.386215
1.3538e-06
0.386214
1.32647e-06
0.386213
1.32687e-06
0.386212
1.36108e-06
0.38621
1.44334e-06
0.386209
1.58984e-06
0.386208
1.79066e-06
0.386206
1.99446e-06
0.386204
2.13546e-06
0.386202
2.18034e-06
0.3862
2.14664e-06
0.386198
2.08366e-06
0.386195
2.00884e-06
0.386193
1.91484e-06
0.386191
1.8119e-06
0.386189
1.74268e-06
0.386188
1.74219e-06
0.386186
1.78963e-06
0.386184
1.81841e-06
0.386183
1.77096e-06
0.386181
1.65963e-06
0.386179
1.55138e-06
0.386178
1.48542e-06
0.386177
1.43039e-06
0.386175
1.33236e-06
0.386174
1.18027e-06
0.386173
1.0215e-06
0.386172
9.0572e-07
0.386171
8.17948e-07
0.38617
6.7586e-07
0.38617
4.00099e-07
0.38617
1.21357e-09
0.38617
-4.56745e-07
0.386171
-8.99954e-07
0.386172
-1.2998e-06
0.386174
-1.66182e-06
0.386176
-1.99723e-06
0.386177
-2.31336e-06
0.386179
-2.61219e-06
0.386181
-2.87213e-06
0.386183
-3.06313e-06
0.386185
-3.16931e-06
0.386187
-3.19703e-06
0.386189
-3.17544e-06
0.386191
-3.13122e-06
0.386193
-3.08322e-06
0.386196
-3.04166e-06
0.386198
-3.00613e-06
0.3862
-2.9542e-06
0.386203
-2.95753e-06
-2.75734e-06
0.386169
7.21889e-07
0.386169
1.50292e-06
0.386168
1.89027e-06
0.386169
1.87882e-06
0.38617
2.06946e-06
0.38617
1.89925e-06
0.38617
1.964e-06
0.38617
2.05062e-06
0.38617
1.9909e-06
0.38617
1.89051e-06
0.386171
2.12862e-06
0.38617
2.63692e-06
0.386169
2.97607e-06
0.38617
2.56013e-06
0.386171
2.16175e-06
0.386172
2.22968e-06
0.386172
2.20602e-06
0.386173
2.35997e-06
0.386172
2.88836e-06
0.386171
3.33948e-06
0.386168
3.32047e-06
0.386166
3.04158e-06
0.386164
2.53891e-06
0.386163
2.35514e-06
0.386163
2.36389e-06
0.386164
1.84734e-06
0.386166
1.18617e-06
0.38617
9.02251e-07
0.386173
1.31559e-06
0.386176
2.09496e-06
0.386176
2.4766e-06
0.386175
2.60519e-06
0.386174
2.92599e-06
0.386171
3.30149e-06
0.386169
3.44302e-06
0.386166
3.25592e-06
0.386165
2.81923e-06
0.386165
2.45453e-06
0.386166
2.3521e-06
0.386167
2.22787e-06
0.386168
1.89233e-06
0.386168
1.63214e-06
0.386169
1.62322e-06
0.38617
1.71401e-06
0.386171
1.93318e-06
0.386171
2.38965e-06
0.38617
2.82427e-06
0.386168
2.81779e-06
0.386167
2.42978e-06
0.386167
2.03391e-06
0.386167
1.71221e-06
0.386169
1.32757e-06
0.38617
9.86609e-07
0.386173
9.64427e-07
0.386174
1.25449e-06
0.386176
1.44498e-06
0.386176
1.37917e-06
0.386178
1.31788e-06
0.386179
1.33109e-06
0.38618
1.15816e-06
0.386182
7.91819e-07
0.386184
6.51849e-07
0.386186
1.03507e-06
0.386187
1.61911e-06
0.386188
1.77661e-06
0.386189
1.53428e-06
0.38619
1.41651e-06
0.386191
1.71619e-06
0.386191
2.22095e-06
0.386191
2.55692e-06
0.386191
2.58249e-06
0.386191
2.42743e-06
0.38619
2.2799e-06
0.38619
2.20876e-06
0.38619
2.12673e-06
0.38619
1.92059e-06
0.386191
1.62961e-06
0.386192
1.42671e-06
0.386193
1.40487e-06
0.386194
1.45392e-06
0.386194
1.40945e-06
0.386195
1.27414e-06
0.386196
1.17983e-06
0.386197
1.1897e-06
0.386199
1.24312e-06
0.3862
1.26736e-06
0.386201
1.25603e-06
0.386202
1.23074e-06
0.386203
1.20972e-06
0.386204
1.23479e-06
0.386205
1.34131e-06
0.386206
1.47248e-06
0.386206
1.49781e-06
0.386206
1.35185e-06
0.386207
1.12741e-06
0.386207
9.67216e-07
0.386207
8.86315e-07
0.386208
7.6677e-07
0.386209
5.16779e-07
0.38621
1.70093e-07
0.386211
-1.67829e-07
0.386212
-4.36296e-07
0.386213
-6.50805e-07
0.386215
-8.15556e-07
0.386217
-8.75405e-07
0.386219
-7.68664e-07
0.386221
-5.21328e-07
0.386223
-2.38153e-07
0.386225
-3.97614e-08
0.386226
9.42345e-08
0.386226
2.64446e-07
0.386227
5.45504e-07
0.386226
9.19056e-07
0.386225
1.28332e-06
0.386223
1.56237e-06
0.386221
1.70219e-06
0.386219
1.67121e-06
0.386217
1.50033e-06
0.386215
1.30669e-06
0.386213
1.22339e-06
0.386211
1.27019e-06
0.386209
1.31562e-06
0.386207
1.21098e-06
0.386205
9.56807e-07
0.386204
7.07005e-07
0.386203
6.01014e-07
0.386203
6.13151e-07
0.386202
6.15861e-07
0.386201
5.22539e-07
0.386201
3.56048e-07
0.386201
2.05891e-07
0.386201
1.36422e-07
0.3862
1.41017e-07
0.3862
1.85015e-07
0.3862
2.56356e-07
0.386199
3.60229e-07
0.386199
4.81381e-07
0.386199
5.5608e-07
0.386199
5.25871e-07
0.386198
3.91059e-07
0.386198
2.07618e-07
0.386198
3.61546e-08
0.386198
-1.01083e-07
0.386198
-2.14965e-07
0.386198
-3.30724e-07
0.386198
-4.68667e-07
0.386198
-6.21695e-07
0.386198
-7.48619e-07
0.386198
-7.93295e-07
0.386198
-7.27467e-07
0.386198
-5.8156e-07
0.386198
-4.33721e-07
0.386198
-3.58163e-07
0.386198
-3.78331e-07
0.386199
-4.67323e-07
0.386199
-5.85295e-07
0.386199
-6.96357e-07
0.3862
-7.65605e-07
0.3862
-7.53886e-07
0.3862
-6.33572e-07
0.3862
-4.26098e-07
0.3862
-2.08576e-07
0.3862
-8.94322e-08
0.386201
-1.26995e-07
0.386201
-2.67632e-07
0.386201
-4.28641e-07
0.386201
-5.38928e-07
0.386202
-5.99127e-07
0.386202
-6.4289e-07
0.386202
-6.75491e-07
0.386202
-6.64056e-07
0.386202
-5.83471e-07
0.386203
-4.63245e-07
0.386203
-3.77422e-07
0.386203
-3.7856e-07
0.386203
-4.53759e-07
0.386203
-5.40389e-07
0.386204
-5.86402e-07
0.386204
-5.77884e-07
0.386204
-5.1919e-07
0.386204
-4.0175e-07
0.386204
-2.12853e-07
0.386204
2.79057e-08
0.386204
2.67647e-07
0.386204
4.41073e-07
0.386203
5.23707e-07
0.386203
5.43171e-07
0.386203
5.46671e-07
0.386203
5.67332e-07
0.386202
6.20204e-07
0.386202
7.20592e-07
0.386202
8.87308e-07
0.386201
1.12584e-06
0.386201
1.41321e-06
0.3862
1.70304e-06
0.386199
1.94523e-06
0.386199
2.10296e-06
0.386198
2.16241e-06
0.386197
2.1394e-06
0.386196
2.07998e-06
0.386196
2.0447e-06
0.386195
2.0799e-06
0.386194
2.19625e-06
0.386193
2.37533e-06
0.386192
2.59437e-06
0.386191
2.83561e-06
0.38619
3.07089e-06
0.386189
3.24949e-06
0.386188
3.31961e-06
0.386187
3.27056e-06
0.386185
3.14931e-06
0.386184
3.02056e-06
0.386183
2.916e-06
0.386182
2.82912e-06
0.386181
2.75352e-06
0.38618
2.70944e-06
0.38618
2.72259e-06
0.386179
2.78126e-06
0.386178
2.82325e-06
0.386176
2.77773e-06
0.386175
2.62419e-06
0.386174
2.40519e-06
0.386174
2.17584e-06
0.386173
1.94896e-06
0.386173
1.68964e-06
0.386172
1.36253e-06
0.386172
9.88154e-07
0.386172
6.1966e-07
0.386173
2.79364e-07
0.386173
-7.66434e-08
0.386174
-4.85767e-07
0.386174
-9.68782e-07
0.386175
-1.48523e-06
0.386175
-1.98381e-06
0.386176
-2.44477e-06
0.386177
-2.88005e-06
0.386178
-3.30125e-06
0.386179
-3.69511e-06
0.38618
-4.04112e-06
0.386182
-4.32694e-06
0.386183
-4.5454e-06
0.386184
-4.69215e-06
0.386186
-4.77252e-06
0.386188
-4.80328e-06
0.386189
-4.80308e-06
0.386191
-4.78198e-06
0.386193
-4.74235e-06
0.386195
-4.65611e-06
0.386196
-4.59461e-06
-4.3268e-06
0.386167
-5.91883e-07
0.386169
-2.52287e-07
0.38617
9.40028e-07
0.38617
1.65848e-06
0.38617
2.29122e-06
0.38617
2.05216e-06
0.38617
1.49327e-06
0.386171
1.79816e-06
0.38617
2.41083e-06
0.38617
2.28248e-06
0.38617
1.83647e-06
0.386172
1.18234e-06
0.386173
1.10929e-06
0.386174
1.77361e-06
0.386174
2.11459e-06
0.386175
1.93088e-06
0.386175
1.5329e-06
0.386176
1.34539e-06
0.386178
1.42015e-06
0.38618
1.49685e-06
0.386181
1.56733e-06
0.386182
1.95756e-06
0.386183
2.25097e-06
0.386183
1.96374e-06
0.386183
2.19257e-06
0.386182
2.63598e-06
0.386181
2.28995e-06
0.386181
1.6919e-06
0.38618
1.45172e-06
0.386181
1.56459e-06
0.386182
1.78394e-06
0.386182
1.75332e-06
0.386184
1.61258e-06
0.386185
1.72546e-06
0.386187
1.9981e-06
0.386188
2.09766e-06
0.386189
2.0285e-06
0.386189
1.98123e-06
0.38619
2.00258e-06
0.38619
2.026e-06
0.38619
2.06336e-06
0.386189
2.19515e-06
0.386188
2.28398e-06
0.386188
2.0859e-06
0.386188
1.738e-06
0.386189
1.66109e-06
0.38619
1.96303e-06
0.38619
2.24883e-06
0.386191
2.28088e-06
0.38619
2.22522e-06
0.38619
2.22744e-06
0.386189
2.13929e-06
0.386188
1.86178e-06
0.386187
1.63878e-06
0.386187
1.68349e-06
0.386187
1.79825e-06
0.386186
1.73176e-06
0.386186
1.65574e-06
0.386185
1.87338e-06
0.386184
2.24846e-06
0.386183
2.37343e-06
0.386181
2.18799e-06
0.38618
2.064e-06
0.38618
2.17985e-06
0.386179
2.23556e-06
0.386179
1.99503e-06
0.386178
1.66154e-06
0.386179
1.56178e-06
0.386179
1.69342e-06
0.38618
1.80453e-06
0.386181
1.75802e-06
0.386181
1.64983e-06
0.386182
1.62548e-06
0.386183
1.71052e-06
0.386183
1.81842e-06
0.386183
1.85101e-06
0.386183
1.79878e-06
0.386183
1.75603e-06
0.386182
1.812e-06
0.386182
1.93273e-06
0.386181
2.00857e-06
0.38618
2.02058e-06
0.386179
2.06207e-06
0.386178
2.16763e-06
0.386177
2.22488e-06
0.386177
2.12288e-06
0.386176
1.91973e-06
0.386175
1.77326e-06
0.386175
1.74046e-06
0.386174
1.73388e-06
0.386174
1.66918e-06
0.386174
1.56534e-06
0.386174
1.50412e-06
0.386174
1.51255e-06
0.386173
1.57536e-06
0.386173
1.68345e-06
0.386172
1.82939e-06
0.38617
1.97949e-06
0.386169
2.094e-06
0.386167
2.1619e-06
0.386164
2.22002e-06
0.386162
2.27848e-06
0.386159
2.29755e-06
0.386156
2.23288e-06
0.386153
2.09465e-06
0.38615
1.9428e-06
0.386148
1.81479e-06
0.386146
1.66898e-06
0.386144
1.41423e-06
0.386143
1.0312e-06
0.386143
6.18299e-07
0.386143
2.90628e-07
0.386144
1.02568e-07
0.386146
-9.79556e-08
0.386148
-4.36146e-07
0.38615
-9.26416e-07
0.386153
-1.46554e-06
0.386157
-1.93314e-06
0.38616
-2.24928e-06
0.386164
-2.37236e-06
0.386167
-2.31133e-06
0.386171
-2.15212e-06
0.386174
-2.03288e-06
0.386177
-2.03677e-06
0.38618
-2.10063e-06
0.386183
-2.05517e-06
0.386185
-1.77466e-06
0.386187
-1.31156e-06
0.386188
-8.92945e-07
0.386189
-6.80049e-07
0.38619
-6.61675e-07
0.386191
-6.96857e-07
0.386192
-6.49115e-07
0.386193
-4.87919e-07
0.386193
-2.80875e-07
0.386194
-1.17274e-07
0.386194
-4.61236e-08
0.386195
-7.44151e-08
0.386195
-1.80948e-07
0.386196
-3.26485e-07
0.386197
-4.66344e-07
0.386197
-5.6789e-07
0.386198
-6.35872e-07
0.386198
-6.96091e-07
0.386199
-7.67311e-07
0.386199
-8.43919e-07
0.3862
-8.99391e-07
0.3862
-9.02599e-07
0.3862
-8.30227e-07
0.3862
-6.79641e-07
0.3862
-4.85667e-07
0.3862
-3.22056e-07
0.386199
-2.68542e-07
0.386199
-3.59224e-07
0.386199
-5.53058e-07
0.3862
-7.59652e-07
0.3862
-8.95998e-07
0.3862
-9.25354e-07
0.3862
-8.58154e-07
0.3862
-7.23832e-07
0.3862
-5.5221e-07
0.386201
-3.80518e-07
0.386201
-2.68334e-07
0.386201
-2.80291e-07
0.386201
-4.28398e-07
0.386201
-6.51516e-07
0.386202
-8.39858e-07
0.386202
-9.12512e-07
0.386202
-8.70184e-07
0.386202
-7.72104e-07
0.386202
-6.74515e-07
0.386202
-5.9483e-07
0.386202
-5.29612e-07
0.386202
-4.90765e-07
0.386203
-5.07471e-07
0.386203
-5.87973e-07
0.386203
-6.89156e-07
0.386203
-7.37704e-07
0.386203
-6.83999e-07
0.386203
-5.32087e-07
0.386203
-3.19622e-07
0.386203
-8.00757e-08
0.386203
1.72135e-07
0.386203
4.10229e-07
0.386202
5.9344e-07
0.386202
6.85607e-07
0.386202
6.94658e-07
0.386202
6.77944e-07
0.386202
7.07566e-07
0.386202
8.30072e-07
0.386201
1.05272e-06
0.386201
1.35522e-06
0.3862
1.70421e-06
0.3862
2.05934e-06
0.386199
2.37758e-06
0.386198
2.62303e-06
0.386198
2.77652e-06
0.386197
2.83826e-06
0.386196
2.82716e-06
0.386195
2.78291e-06
0.386195
2.76474e-06
0.386194
2.83359e-06
0.386193
3.01919e-06
0.386192
3.29879e-06
0.386191
3.61193e-06
0.38619
3.89878e-06
0.386189
4.12434e-06
0.386188
4.26995e-06
0.386187
4.31542e-06
0.386186
4.24686e-06
0.386185
4.08584e-06
0.386184
3.89626e-06
0.386184
3.74698e-06
0.386183
3.66569e-06
0.386182
3.63234e-06
0.386181
3.61652e-06
0.38618
3.61363e-06
0.386179
3.63757e-06
0.386178
3.67813e-06
0.386177
3.67678e-06
0.386176
3.55874e-06
0.386176
3.29309e-06
0.386175
2.91401e-06
0.386174
2.47592e-06
0.386174
2.00399e-06
0.386174
1.49351e-06
0.386174
9.41844e-07
0.386174
3.72508e-07
0.386175
-1.68591e-07
0.386175
-6.65999e-07
0.386176
-1.11922e-06
0.386176
-1.55941e-06
0.386177
-2.01695e-06
0.386177
-2.50067e-06
0.386178
-3.00194e-06
0.386179
-3.50919e-06
0.386179
-4.00872e-06
0.38618
-4.4851e-06
0.386181
-4.92803e-06
0.386182
-5.33106e-06
0.386183
-5.68722e-06
0.386184
-5.98685e-06
0.386186
-6.21695e-06
0.386187
-6.37278e-06
0.386189
-6.45874e-06
0.386191
-6.47402e-06
0.386192
-6.42485e-06
0.386194
-6.29684e-06
0.386196
-6.17928e-06
-5.77662e-06
0.386168
9.43655e-08
0.386167
3.14531e-07
0.386167
5.68467e-07
0.386168
6.35921e-07
0.38617
1.0594e-06
0.38617
1.97943e-06
0.386169
1.76494e-06
0.38617
1.32477e-06
0.386171
1.15282e-06
0.386172
1.06333e-06
0.386173
1.31932e-06
0.386173
1.49559e-06
0.386172
1.4127e-06
0.386173
1.42606e-06
0.386173
1.44943e-06
0.386173
2.02519e-06
0.386172
2.59054e-06
0.386171
2.35638e-06
0.386171
1.85688e-06
0.38617
1.80937e-06
0.38617
1.89355e-06
0.38617
1.70183e-06
0.386171
1.55811e-06
0.386172
1.44846e-06
0.386172
1.39229e-06
0.386173
1.86671e-06
0.386173
2.42471e-06
0.386172
2.41099e-06
0.386172
2.1057e-06
0.386171
1.93462e-06
0.386171
1.83958e-06
0.386171
1.62624e-06
0.386172
1.29666e-06
0.386172
9.46894e-07
0.386174
7.17721e-07
0.386175
7.96795e-07
0.386176
1.14642e-06
0.386176
1.42602e-06
0.386177
1.5335e-06
0.386177
1.66954e-06
0.386177
1.8252e-06
0.386178
1.878e-06
0.386178
1.88315e-06
0.386178
1.85884e-06
0.386179
1.64027e-06
0.386179
1.22248e-06
0.38618
9.16296e-07
0.386181
8.83332e-07
0.386183
9.3209e-07
0.386184
9.75117e-07
0.386185
1.20689e-06
0.386185
1.70729e-06
0.386185
2.15515e-06
0.386184
2.28352e-06
0.386184
2.2561e-06
0.386183
2.30657e-06
0.386183
2.31034e-06
0.386182
2.07223e-06
0.386183
1.76626e-06
0.386183
1.72379e-06
0.386183
1.9085e-06
0.386184
1.94556e-06
0.386184
1.69164e-06
0.386185
1.39267e-06
0.386186
1.27188e-06
0.386187
1.27297e-06
0.386187
1.22132e-06
0.386188
1.04834e-06
0.386188
7.96827e-07
0.38619
5.53374e-07
0.386191
4.11145e-07
0.386192
4.33509e-07
0.386193
5.82033e-07
0.386194
7.58172e-07
0.386195
9.34484e-07
0.386196
1.14602e-06
0.386196
1.3801e-06
0.386196
1.55361e-06
0.386197
1.6148e-06
0.386197
1.59253e-06
0.386197
1.52987e-06
0.386198
1.44151e-06
0.386199
1.33746e-06
0.3862
1.21891e-06
0.386201
1.04545e-06
0.386202
7.78022e-07
0.386204
4.75041e-07
0.386205
2.73398e-07
0.386207
2.35964e-07
0.386208
2.548e-07
0.38621
1.7469e-07
0.386211
-5.77511e-08
0.386213
-2.79648e-07
0.386215
-3.87917e-07
0.386217
-3.95554e-07
0.386219
-3.77438e-07
0.386221
-3.61977e-07
0.386224
-3.16366e-07
0.386226
-1.9414e-07
0.386228
-2.53053e-08
0.38623
2.16489e-07
0.386232
5.29448e-07
0.386233
9.20057e-07
0.386234
1.36723e-06
0.386234
1.81476e-06
0.386234
2.20049e-06
0.386233
2.47851e-06
0.386232
2.62334e-06
0.386231
2.61864e-06
0.38623
2.47948e-06
0.386228
2.24963e-06
0.386226
1.9871e-06
0.386225
1.71592e-06
0.386223
1.35933e-06
0.386222
8.35897e-07
0.386221
1.77138e-07
0.38622
-4.65817e-07
0.386219
-9.27044e-07
0.386218
-1.14133e-06
0.386217
-1.17042e-06
0.386215
-1.11711e-06
0.386214
-1.03894e-06
0.386213
-9.45515e-07
0.386212
-8.33806e-07
0.386211
-6.98518e-07
0.386209
-5.10205e-07
0.386208
-2.38354e-07
0.386206
1.40274e-07
0.386205
4.5498e-07
0.386203
6.10468e-07
0.386202
5.72811e-07
0.386201
4.29756e-07
0.3862
3.26542e-07
0.386199
3.48779e-07
0.386199
4.6455e-07
0.386198
5.6867e-07
0.386197
5.74556e-07
0.386197
4.66365e-07
0.386196
2.88601e-07
0.386196
1.03249e-07
0.386195
-5.4151e-08
0.386195
-1.59826e-07
0.386195
-2.41326e-07
0.386194
-3.41301e-07
0.386194
-4.86463e-07
0.386194
-6.60903e-07
0.386194
-8.13703e-07
0.386194
-8.96792e-07
0.386194
-8.94246e-07
0.386194
-8.25744e-07
0.386194
-7.35208e-07
0.386194
-6.78528e-07
0.386195
-7.08831e-07
0.386195
-8.51519e-07
0.386196
-1.07739e-06
0.386196
-1.30256e-06
0.386197
-1.4277e-06
0.386197
-1.39519e-06
0.386198
-1.22512e-06
0.386198
-9.9873e-07
0.386198
-8.03044e-07
0.386199
-6.84538e-07
0.386199
-6.49869e-07
0.386199
-6.95399e-07
0.3862
-8.1683e-07
0.3862
-9.91522e-07
0.386201
-1.15822e-06
0.386201
-1.23458e-06
0.386201
-1.17363e-06
0.386201
-1.00213e-06
0.386202
-8.02601e-07
0.386202
-6.54476e-07
0.386202
-5.88852e-07
0.386202
-5.9269e-07
0.386202
-6.41379e-07
0.386202
-7.16392e-07
0.386202
-7.91206e-07
0.386202
-8.17581e-07
0.386202
-7.42774e-07
0.386202
-5.47938e-07
0.386202
-2.66546e-07
0.386202
3.80536e-08
0.386202
3.13608e-07
0.386202
5.35221e-07
0.386202
6.96191e-07
0.386202
7.93713e-07
0.386201
8.3731e-07
0.386201
8.64395e-07
0.386201
9.35555e-07
0.386201
1.10576e-06
0.3862
1.39574e-06
0.3862
1.78543e-06
0.386199
2.22652e-06
0.386199
2.65929e-06
0.386198
3.02675e-06
0.386198
3.28919e-06
0.386197
3.43701e-06
0.386196
3.49278e-06
0.386196
3.49833e-06
0.386195
3.49841e-06
0.386194
3.53431e-06
0.386193
3.64439e-06
0.386192
3.85558e-06
0.386192
4.16245e-06
0.386191
4.51477e-06
0.38619
4.83573e-06
0.386189
5.06221e-06
0.386188
5.17089e-06
0.386187
5.16935e-06
0.386186
5.07234e-06
0.386185
4.89813e-06
0.386185
4.68522e-06
0.386184
4.49612e-06
0.386183
4.38793e-06
0.386182
4.37363e-06
0.386182
4.4166e-06
0.386181
4.46663e-06
0.38618
4.49841e-06
0.386179
4.50892e-06
0.386178
4.47792e-06
0.386177
4.34598e-06
0.386177
4.04696e-06
0.386176
3.55675e-06
0.386176
2.91446e-06
0.386175
2.20014e-06
0.386175
1.48328e-06
0.386176
7.96421e-07
0.386176
1.4366e-07
0.386176
-4.63601e-07
0.386176
-1.01617e-06
0.386177
-1.51716e-06
0.386177
-1.99037e-06
0.386178
-2.46745e-06
0.386178
-2.97248e-06
0.386179
-3.5123e-06
0.386179
-4.07848e-06
0.38618
-4.65601e-06
0.386181
-5.23063e-06
0.386182
-5.78883e-06
0.386182
-6.31278e-06
0.386184
-6.787e-06
0.386185
-7.20268e-06
0.386186
-7.54854e-06
0.386188
-7.80758e-06
0.386189
-7.96082e-06
0.386191
-7.99799e-06
0.386192
-7.9358e-06
0.386194
-7.76998e-06
0.386195
-7.6246e-06
-7.1429e-06
0.38617
8.29636e-07
0.386169
1.35259e-06
0.386169
1.1703e-06
0.386168
9.10401e-07
0.386168
1.03048e-06
0.386169
1.2984e-06
0.386169
1.5672e-06
0.38617
9.60576e-07
0.38617
9.26595e-07
0.386169
1.44501e-06
0.386169
1.8736e-06
0.386168
2.0655e-06
0.386168
1.87286e-06
0.386167
1.80057e-06
0.386167
1.66041e-06
0.386168
1.29192e-06
0.386169
1.12419e-06
0.386171
1.04774e-06
0.386171
1.13551e-06
0.386172
1.26984e-06
0.386173
1.06687e-06
0.386173
1.11256e-06
0.386173
1.58223e-06
0.386173
1.86112e-06
0.386173
1.80118e-06
0.386173
1.57391e-06
0.386174
1.58424e-06
0.386174
1.90572e-06
0.386174
1.94572e-06
0.386175
1.61883e-06
0.386175
1.54922e-06
0.386175
1.84278e-06
0.386174
2.0622e-06
0.386173
2.03178e-06
0.386172
1.88945e-06
0.386171
1.7884e-06
0.38617
1.72691e-06
0.38617
1.56361e-06
0.38617
1.29164e-06
0.386171
1.05698e-06
0.386172
8.6427e-07
0.386173
6.86176e-07
0.386174
6.99541e-07
0.386175
1.09547e-06
0.386175
1.63044e-06
0.386174
1.93686e-06
0.386173
2.04015e-06
0.386172
2.08496e-06
0.386171
1.97409e-06
0.38617
1.59637e-06
0.38617
1.19817e-06
0.386171
1.05647e-06
0.386172
1.01496e-06
0.386174
7.58962e-07
0.386175
4.17075e-07
0.386177
3.92054e-07
0.386179
6.77796e-07
0.38618
8.37509e-07
0.386181
6.78492e-07
0.386182
5.68465e-07
0.386184
8.33904e-07
0.386184
1.21731e-06
0.386185
1.3046e-06
0.386185
1.15607e-06
0.386185
1.19322e-06
0.386185
1.56467e-06
0.386184
1.98409e-06
0.386183
2.14378e-06
0.386182
2.03837e-06
0.38618
1.87615e-06
0.386179
1.80643e-06
0.386178
1.79972e-06
0.386176
1.72541e-06
0.386176
1.505e-06
0.386175
1.21351e-06
0.386175
1.00659e-06
0.386176
9.41489e-07
0.386177
9.32689e-07
0.386177
8.97329e-07
0.386178
8.79081e-07
0.386179
9.68266e-07
0.386179
1.14716e-06
0.386179
1.30395e-06
0.386179
1.37484e-06
0.386178
1.39659e-06
0.386178
1.42191e-06
0.386177
1.45363e-06
0.386176
1.48122e-06
0.386174
1.51588e-06
0.386173
1.54645e-06
0.386172
1.51517e-06
0.38617
1.38243e-06
0.386169
1.21165e-06
0.386167
1.09228e-06
0.386166
1.05077e-06
0.386164
1.04376e-06
0.386163
1.03035e-06
0.386162
1.01513e-06
0.38616
1.01286e-06
0.386159
9.96433e-07
0.386159
9.34939e-07
0.386158
8.24315e-07
0.386159
7.14016e-07
0.386159
6.55605e-07
0.38616
6.25455e-07
0.386162
5.25183e-07
0.386164
2.68425e-07
0.386167
-1.08554e-07
0.38617
-5.18478e-07
0.386173
-8.3298e-07
0.386177
-1.01741e-06
0.38618
-1.11831e-06
0.386183
-1.21622e-06
0.386186
-1.39038e-06
0.386188
-1.68254e-06
0.38619
-2.05282e-06
0.386192
-2.36453e-06
0.386194
-2.46231e-06
0.386195
-2.31192e-06
0.386196
-2.04336e-06
0.386197
-1.83669e-06
0.386197
-1.76961e-06
0.386198
-1.7663e-06
0.386199
-1.6869e-06
0.3862
-1.45338e-06
0.3862
-1.09467e-06
0.386201
-6.98293e-07
0.386201
-3.30633e-07
0.386202
-6.45297e-08
0.386202
1.06539e-07
0.386203
1.9694e-07
0.386203