/*--------------------------------*- C++ -*----------------------------------*\
| =========                 |                                                 |
| \\      /  F ield         | OpenFOAM: The Open Source CFD Toolbox           |
|  \\    /   O peration     | Version:  2406                                  |
|   \\  /    A nd           | Website:  www.openfoam.com                      |
|    \\/     M anipulation  |                                                 |
\*---------------------------------------------------------------------------*/
FoamFile
{
    version     2.0;
    format      ascii;
    arch        "LSB;label=32;scalar=64";
    class       volScalarField;
    location    "0.35";
    object      p;
}
// * * * * * * * * * * * * * * * * * * * * * * * * * * * * * * * * * * * * * //

dimensions      [1 -1 -2 0 0 0 0];

internalField   nonuniform List<scalar> 
6250
(
2147.32
292.618
1526.78
2417.23
2383.84
2108.3
2008.52
2044.13
2078.98
2073.88
2053.82
2039.87
2032.64
2026.17
2018
2008.97
2000.11
1991.58
1983.11
1974.57
1965.99
1957.4
1948.84
1940.27
1931.71
1923.13
1914.57
1906.01
1897.44
1888.87
1880.31
1871.75
1863.18
1854.61
1846.04
1837.47
1828.91
1820.34
1811.78
1803.21
1794.65
1786.08
1777.52
1768.95
1760.38
1751.81
1743.24
1734.68
1726.11
1717.55
1708.98
1700.42
1691.85
1683.28
1674.71
1666.14
1657.58
1649.02
1640.46
1631.88
1623.32
1614.75
1606.18
1597.62
1589.05
1580.49
1571.92
1563.36
1554.79
1546.22
1537.65
1529.09
1520.52
1511.96
1503.39
1494.82
1486.26
1477.69
1469.12
1460.56
1451.99
1443.42
1434.86
1426.29
1417.73
1409.16
1400.59
1392.03
1383.46
1374.89
1366.33
1357.76
1349.2
1340.63
1332.06
1323.5
1314.93
1306.36
1297.8
1289.23
1280.67
1272.1
1263.53
1254.97
1246.4
1237.83
1229.27
1220.7
1212.14
1203.57
1195
1186.44
1177.87
1169.31
1160.74
1152.17
1143.6
1135.04
1126.47
1117.9
1109.34
1100.77
1092.21
1083.64
1075.07
1066.5
1057.94
1049.37
1040.81
1032.24
1023.67
1015.11
1006.54
997.974
989.407
980.839
972.273
963.708
955.143
946.577
938.01
929.442
920.874
912.306
903.738
895.172
886.607
878.044
869.482
860.917
852.349
843.778
835.207
826.638
818.072
809.51
800.948
792.385
783.819
775.251
766.681
758.111
749.542
740.975
732.41
723.847
715.286
706.725
698.16
689.592
681.021
672.45
663.882
655.316
646.752
638.189
629.627
621.064
612.501
603.934
595.365
586.795
578.225
569.657
561.091
552.526
543.962
535.398
526.833
518.267
509.7
501.132
492.563
483.993
475.423
466.855
458.288
449.723
441.157
432.591
424.024
415.456
406.889
398.322
389.755
381.187
372.62
364.054
355.489
346.924
338.359
329.795
321.23
312.665
304.1
295.536
286.973
278.41
269.849
261.288
252.726
244.164
235.6
227.034
218.466
209.895
201.322
192.747
184.17
175.593
167.016
158.441
149.869
141.298
132.729
124.162
115.598
107.036
98.4755
89.9146
81.353
72.7904
64.2275
55.6644
47.1009
38.5367
29.9721
21.4076
12.8436
4.28148
2147.31
292.574
1526.75
2417.24
2383.86
2108.31
2008.53
2044.13
2078.97
2073.88
2053.82
2039.86
2032.64
2026.17
2018.01
2008.98
2000.12
1991.58
1983.11
1974.56
1965.97
1957.39
1948.82
1940.26
1931.7
1923.14
1914.57
1906.01
1897.45
1888.88
1880.31
1871.73
1863.17
1854.61
1846.05
1837.48
1828.91
1820.35
1811.78
1803.21
1794.64
1786.08
1777.51
1768.95
1760.38
1751.82
1743.25
1734.68
1726.11
1717.55
1708.98
1700.42
1691.85
1683.29
1674.72
1666.15
1657.58
1649.02
1640.45
1631.89
1623.32
1614.75
1606.19
1597.63
1589.05
1580.48
1571.92
1563.35
1554.79
1546.22
1537.66
1529.09
1520.52
1511.96
1503.39
1494.82
1486.26
1477.69
1469.13
1460.56
1451.99
1443.42
1434.86
1426.29
1417.73
1409.16
1400.59
1392.02
1383.46
1374.9
1366.33
1357.76
1349.19
1340.63
1332.06
1323.5
1314.93
1306.36
1297.8
1289.23
1280.67
1272.1
1263.53
1254.97
1246.4
1237.84
1229.27
1220.7
1212.14
1203.57
1195
1186.44
1177.87
1169.31
1160.74
1152.17
1143.6
1135.04
1126.47
1117.91
1109.34
1100.77
1092.21
1083.64
1075.07
1066.5
1057.94
1049.37
1040.81
1032.24
1023.67
1015.11
1006.54
997.974
989.407
980.84
972.272
963.707
955.143
946.579
938.012
929.443
920.873
912.304
903.737
895.172
886.609
878.046
869.482
860.916
852.348
843.778
835.207
826.637
818.071
809.509
800.949
792.387
783.822
775.252
766.679
758.107
749.538
740.973
732.411
723.85
715.288
706.726
698.16
689.592
681.02
672.448
663.879
655.314
646.752
638.191
629.63
621.066
612.501
603.934
595.365
586.794
578.224
569.656
561.09
552.526
543.963
535.4
526.835
518.268
509.7
501.13
492.561
483.992
475.423
466.856
458.288
449.723
441.157
432.592
424.025
415.457
406.889
398.321
389.754
381.187
372.621
364.055
355.49
346.925
338.36
329.795
321.229
312.664
304.1
295.536
286.973
278.41
269.848
261.287
252.727
244.165
235.602
227.036
218.467
209.896
201.322
192.747
184.171
175.593
167.016
158.44
149.866
141.296
132.728
124.163
115.599
107.036
98.4748
89.9144
81.3538
72.7921
64.2291
55.6649
47.1004
38.536
29.9715
21.4073
12.8427
4.28193
2147.29
292.579
1526.76
2417.24
2383.86
2108.3
2008.52
2044.13
2078.98
2073.88
2053.82
2039.87
2032.65
2026.18
2018.01
2008.97
2000.12
1991.58
1983.11
1974.57
1965.98
1957.4
1948.83
1940.27
1931.71
1923.14
1914.57
1906
1897.44
1888.88
1880.31
1871.74
1863.18
1854.61
1846.05
1837.48
1828.91
1820.34
1811.78
1803.21
1794.65
1786.08
1777.51
1768.95
1760.38
1751.81
1743.25
1734.68
1726.11
1717.55
1708.98
1700.42
1691.85
1683.28
1674.72
1666.15
1657.58
1649.02
1640.45
1631.89
1623.32
1614.75
1606.18
1597.62
1589.05
1580.49
1571.92
1563.35
1554.79
1546.22
1537.65
1529.09
1520.52
1511.96
1503.39
1494.82
1486.26
1477.69
1469.13
1460.56
1451.99
1443.42
1434.86
1426.29
1417.73
1409.16
1400.59
1392.02
1383.46
1374.9
1366.33
1357.76
1349.19
1340.63
1332.06
1323.5
1314.93
1306.36
1297.8
1289.23
1280.67
1272.1
1263.53
1254.97
1246.4
1237.83
1229.27
1220.7
1212.14
1203.57
1195
1186.44
1177.87
1169.31
1160.74
1152.17
1143.6
1135.04
1126.47
1117.91
1109.34
1100.77
1092.21
1083.64
1075.07
1066.51
1057.94
1049.37
1040.81
1032.24
1023.67
1015.11
1006.54
997.974
989.407
980.84
972.273
963.707
955.142
946.578
938.012
929.444
920.874
912.303
903.736
895.172
886.61
878.048
869.483
860.916
852.346
843.775
835.205
826.638
818.073
809.511
800.949
792.386
783.821
775.251
766.679
758.107
749.539
740.974
732.413
723.852
715.291
706.726
698.159
689.589
681.019
672.449
663.88
655.314
646.752
638.192
629.631
621.067
612.501
603.932
595.362
586.793
578.224
569.656
561.091
552.527
543.963
535.4
526.835
518.268
509.7
501.13
492.56
483.991
475.423
466.856
458.289
449.723
441.157
432.591
424.024
415.457
406.889
398.321
389.754
381.187
372.621
364.055
355.49
346.925
338.36
329.795
321.229
312.664
304.099
295.535
286.972
278.41
269.849
261.288
252.727
244.165
235.602
227.036
218.468
209.896
201.322
192.746
184.169
175.592
167.015
158.44
149.866
141.296
132.728
124.163
115.6
107.037
98.4758
89.9147
81.3538
72.7922
64.2295
55.6655
47.1007
38.5358
29.9711
21.407
12.8429
4.2819
2147.29
292.571
1526.76
2417.24
2383.86
2108.3
2008.51
2044.13
2078.98
2073.88
2053.82
2039.86
2032.64
2026.17
2018.01
2008.98
2000.12
1991.58
1983.1
1974.57
1965.98
1957.4
1948.83
1940.27
1931.7
1923.14
1914.57
1906.01
1897.44
1888.88
1880.31
1871.74
1863.17
1854.61
1846.04
1837.48
1828.91
1820.35
1811.78
1803.21
1794.65
1786.08
1777.51
1768.95
1760.38
1751.81
1743.25
1734.68
1726.11
1717.55
1708.98
1700.42
1691.85
1683.28
1674.72
1666.15
1657.59
1649.02
1640.45
1631.89
1623.32
1614.75
1606.19
1597.62
1589.05
1580.49
1571.92
1563.35
1554.79
1546.22
1537.66
1529.09
1520.52
1511.96
1503.39
1494.82
1486.26
1477.69
1469.12
1460.56
1451.99
1443.42
1434.86
1426.29
1417.73
1409.16
1400.59
1392.03
1383.46
1374.89
1366.33
1357.76
1349.2
1340.63
1332.06
1323.5
1314.93
1306.36
1297.8
1289.23
1280.67
1272.1
1263.53
1254.97
1246.4
1237.84
1229.27
1220.7
1212.14
1203.57
1195
1186.44
1177.87
1169.31
1160.74
1152.17
1143.6
1135.04
1126.47
1117.91
1109.34
1100.77
1092.2
1083.64
1075.07
1066.5
1057.94
1049.37
1040.8
1032.24
1023.67
1015.11
1006.54
997.974
989.406
980.839
972.273
963.708
955.143
946.577
938.011
929.443
920.874
912.305
903.737
895.172
886.61
878.048
869.484
860.916
852.345
843.774
835.205
826.638
818.075
809.513
800.951
792.386
783.819
775.249
766.679
758.108
749.539
740.974
732.413
723.853
715.291
706.726
698.158
689.588
681.017
672.448
663.881
655.316
646.753
638.192
629.631
621.067
612.5
603.931
595.361
586.791
578.223
569.656
561.091
552.528
543.964
535.4
526.835
518.268
509.7
501.13
492.56
483.991
475.422
466.856
458.29
449.724
441.158
432.591
424.024
415.457
406.889
398.321
389.754
381.187
372.621
364.056
355.49
346.925
338.36
329.795
321.23
312.664
304.099
295.535
286.972
278.41
269.849
261.288
252.727
244.165
235.601
227.036
218.468
209.897
201.322
192.746
184.169
175.592
167.015
158.44
149.867
141.296
132.728
124.163
115.6
107.038
98.4769
89.9157
81.3541
72.7921
64.2293
55.6655
47.1009
38.5358
29.9709
21.4068
12.8428
4.28168
2147.29
292.572
1526.75
2417.23
2383.86
2108.31
2008.52
2044.13
2078.98
2073.88
2053.82
2039.86
2032.64
2026.17
2018.01
2008.98
2000.12
1991.58
1983.11
1974.57
1965.98
1957.4
1948.83
1940.27
1931.7
1923.14
1914.58
1906.01
1897.44
1888.87
1880.31
1871.74
1863.18
1854.61
1846.04
1837.48
1828.91
1820.35
1811.78
1803.21
1794.65
1786.08
1777.51
1768.95
1760.38
1751.82
1743.25
1734.68
1726.11
1717.55
1708.98
1700.42
1691.85
1683.28
1674.71
1666.15
1657.58
1649.02
1640.45
1631.88
1623.32
1614.75
1606.18
1597.62
1589.05
1580.49
1571.92
1563.35
1554.79
1546.22
1537.66
1529.09
1520.52
1511.95
1503.39
1494.82
1486.26
1477.69
1469.12
1460.56
1451.99
1443.42
1434.86
1426.29
1417.73
1409.16
1400.59
1392.03
1383.46
1374.89
1366.33
1357.76
1349.2
1340.63
1332.06
1323.5
1314.93
1306.36
1297.8
1289.23
1280.67
1272.1
1263.53
1254.97
1246.4
1237.84
1229.27
1220.7
1212.14
1203.57
1195
1186.44
1177.87
1169.3
1160.74
1152.17
1143.6
1135.04
1126.47
1117.91
1109.34
1100.77
1092.21
1083.64
1075.07
1066.51
1057.94
1049.37
1040.81
1032.24
1023.67
1015.11
1006.54
997.975
989.406
980.838
972.272
963.708
955.143
946.578
938.011
929.443
920.874
912.305
903.738
895.174
886.61
878.047
869.483
860.915
852.345
843.774
835.205
826.638
818.075
809.514
800.952
792.387
783.819
775.248
766.677
758.108
749.541
740.977
732.415
723.853
715.291
706.726
698.158
689.587
681.016
672.447
663.881
655.317
646.755
638.193
629.631
621.066
612.499
603.93
595.36
586.79
578.222
569.656
561.091
552.528
543.965
535.401
526.835
518.268
509.699
501.129
492.56
483.991
475.422
466.855
458.29
449.724
441.159
432.592
424.025
415.457
406.889
398.321
389.754
381.187
372.621
364.056
355.491
346.926
338.361
329.795
321.23
312.664
304.099
295.534
286.971
278.409
269.848
261.288
252.727
244.165
235.602
227.036
218.467
209.896
201.322
192.746
184.169
175.591
167.015
158.44
149.867
141.297
132.729
124.163
115.6
107.038
98.4774
89.9166
81.355
72.7926
64.2295
55.6656
47.1009
38.536
29.9711
21.4068
12.8429
4.28169
2147.29
292.571
1526.75
2417.23
2383.85
2108.3
2008.52
2044.13
2078.98
2073.88
2053.82
2039.87
2032.64
2026.17
2018.01
2008.97
2000.12
1991.58
1983.1
1974.56
1965.98
1957.39
1948.83
1940.27
1931.7
1923.14
1914.57
1906.01
1897.44
1888.87
1880.31
1871.74
1863.18
1854.61
1846.04
1837.48
1828.91
1820.34
1811.78
1803.21
1794.65
1786.08
1777.51
1768.95
1760.38
1751.82
1743.25
1734.68
1726.12
1717.55
1708.98
1700.42
1691.85
1683.28
1674.72
1666.15
1657.58
1649.02
1640.45
1631.89
1623.32
1614.75
1606.19
1597.62
1589.05
1580.49
1571.92
1563.35
1554.79
1546.22
1537.66
1529.09
1520.52
1511.96
1503.39
1494.82
1486.26
1477.69
1469.12
1460.56
1451.99
1443.42
1434.86
1426.29
1417.73
1409.16
1400.59
1392.03
1383.46
1374.89
1366.33
1357.76
1349.2
1340.63
1332.06
1323.5
1314.93
1306.36
1297.8
1289.23
1280.67
1272.1
1263.53
1254.97
1246.4
1237.84
1229.27
1220.7
1212.14
1203.57
1195
1186.44
1177.87
1169.3
1160.74
1152.17
1143.61
1135.04
1126.47
1117.9
1109.34
1100.77
1092.2
1083.64
1075.07
1066.51
1057.94
1049.37
1040.8
1032.24
1023.67
1015.11
1006.54
997.974
989.406
980.837
972.271
963.707
955.144
946.579
938.012
929.443
920.874
912.305
903.739
895.175
886.612
878.048
869.482
860.914
852.344
843.774
835.206
826.64
818.077
809.515
800.952
792.387
783.818
775.247
766.676
758.108
749.542
740.979
732.417
723.855
715.291
706.725
698.156
689.586
681.015
672.446
663.881
655.318
646.756
638.194
629.631
621.065
612.498
603.929
595.359
586.789
578.221
569.656
561.092
552.529
543.966
535.401
526.835
518.267
509.698
501.128
492.559
483.99
475.423
466.856
458.29
449.725
441.159
432.593
424.025
415.457
406.889
398.321
389.754
381.187
372.622
364.056
355.492
346.927
338.361
329.796
321.23
312.664
304.099
295.534
286.971
278.409
269.848
261.287
252.727
244.165
235.602
227.036
218.467
209.896
201.322
192.746
184.169
175.592
167.015
158.44
149.867
141.297
132.73
124.164
115.601
107.039
98.4777
89.9168
81.3553
72.793
64.2297
55.6656
47.1009
38.5359
29.971
21.4067
12.8427
4.28148
2147.28
292.564
1526.75
2417.23
2383.85
2108.3
2008.52
2044.13
2078.98
2073.88
2053.82
2039.86
2032.64
2026.17
2018
2008.97
2000.12
1991.58
1983.11
1974.57
1965.98
1957.4
1948.83
1940.27
1931.71
1923.14
1914.57
1906.01
1897.44
1888.87
1880.31
1871.74
1863.18
1854.61
1846.05
1837.48
1828.91
1820.35
1811.78
1803.21
1794.65
1786.08
1777.51
1768.95
1760.38
1751.81
1743.25
1734.68
1726.11
1717.55
1708.98
1700.42
1691.85
1683.28
1674.72
1666.15
1657.58
1649.02
1640.45
1631.89
1623.32
1614.75
1606.19
1597.62
1589.06
1580.49
1571.92
1563.35
1554.79
1546.22
1537.66
1529.09
1520.52
1511.96
1503.39
1494.82
1486.26
1477.69
1469.13
1460.56
1451.99
1443.42
1434.86
1426.29
1417.73
1409.16
1400.59
1392.03
1383.46
1374.89
1366.33
1357.76
1349.2
1340.63
1332.06
1323.5
1314.93
1306.36
1297.8
1289.23
1280.67
1272.1
1263.53
1254.97
1246.4
1237.83
1229.27
1220.7
1212.14
1203.57
1195
1186.43
1177.87
1169.3
1160.74
1152.17
1143.61
1135.04
1126.47
1117.9
1109.34
1100.77
1092.21
1083.64
1075.07
1066.51
1057.94
1049.37
1040.81
1032.24
1023.68
1015.11
1006.54
997.974
989.405
980.837
972.271
963.707
955.143
946.579
938.012
929.444
920.874
912.306
903.739
895.175
886.612
878.048
869.481
860.912
852.343
843.774
835.207
826.642
818.078
809.516
800.952
792.385
783.817
775.247
766.677
758.108
749.543
740.98
732.419
723.856
715.291
706.724
698.154
689.584
681.015
672.447
663.881
655.319
646.757
638.195
629.631
621.065
612.496
603.926
595.357
586.788
578.221
569.656
561.093
552.53
543.966
535.401
526.835
518.267
509.697
501.127
492.558
483.99
475.423
466.857
458.291
449.725
441.159
432.593
424.025
415.457
406.889
398.321
389.754
381.188
372.622
364.057
355.492
346.927
338.362
329.796
321.23
312.663
304.098
295.533
286.97
278.408
269.847
261.287
252.726
244.165
235.601
227.036
218.467
209.896
201.322
192.746
184.169
175.592
167.015
158.44
149.868
141.297
132.73
124.165
115.602
107.04
98.4784
89.9172
81.3557
72.7934
64.23
55.6658
47.101
38.5361
29.9712
21.4068
12.8428
4.28145
2147.28
292.558
1526.75
2417.24
2383.86
2108.3
2008.51
2044.13
2078.97
2073.87
2053.82
2039.87
2032.64
2026.18
2018.01
2008.97
2000.12
1991.58
1983.11
1974.57
1965.98
1957.4
1948.83
1940.27
1931.71
1923.14
1914.57
1906.01
1897.44
1888.87
1880.31
1871.74
1863.17
1854.61
1846.04
1837.48
1828.91
1820.34
1811.78
1803.21
1794.65
1786.08
1777.51
1768.95
1760.38
1751.82
1743.25
1734.68
1726.11
1717.55
1708.98
1700.41
1691.85
1683.28
1674.72
1666.15
1657.58
1649.02
1640.45
1631.89
1623.32
1614.75
1606.19
1597.62
1589.06
1580.49
1571.92
1563.35
1554.79
1546.22
1537.66
1529.09
1520.52
1511.96
1503.39
1494.82
1486.26
1477.69
1469.13
1460.56
1451.99
1443.42
1434.86
1426.29
1417.73
1409.16
1400.59
1392.03
1383.46
1374.89
1366.33
1357.76
1349.2
1340.63
1332.06
1323.5
1314.93
1306.36
1297.8
1289.23
1280.67
1272.1
1263.53
1254.97
1246.4
1237.83
1229.27
1220.7
1212.14
1203.57
1195
1186.43
1177.87
1169.3
1160.74
1152.17
1143.61
1135.04
1126.47
1117.9
1109.34
1100.77
1092.21
1083.64
1075.07
1066.51
1057.94
1049.37
1040.8
1032.24
1023.68
1015.11
1006.54
997.973
989.404
980.837
972.272
963.708
955.144
946.579
938.012
929.444
920.875
912.307
903.741
895.176
886.612
878.047
869.481
860.912
852.343
843.774
835.208
826.643
818.08
809.517
800.952
792.385
783.816
775.246
766.677
758.11
749.545
740.982
732.42
723.857
715.291
706.722
698.152
689.582
681.014
672.447
663.883
655.32
646.758
638.195
629.631
621.063
612.494
603.924
595.355
586.787
578.221
569.656
561.093
552.53
543.967
535.401
526.834
518.266
509.697
501.127
492.558
483.989
475.423
466.857
458.292
449.726
441.16
432.593
424.026
415.457
406.889
398.321
389.754
381.188
372.623
364.058
355.493
346.928
338.362
329.796
321.23
312.663
304.097
295.533
286.969
278.407
269.846
261.286
252.726
244.164
235.601
227.036
218.467
209.896
201.322
192.746
184.169
175.592
167.016
158.441
149.869
141.298
132.731
124.166
115.602
107.041
98.4791
89.9176
81.3558
72.7935
64.2302
55.6661
47.1012
38.5361
29.9711
21.4067
12.8428
4.28127
2147.28
292.559
1526.75
2417.23
2383.85
2108.29
2008.52
2044.13
2078.98
2073.88
2053.82
2039.86
2032.64
2026.17
2018
2008.97
2000.11
1991.58
1983.11
1974.56
1965.98
1957.4
1948.83
1940.27
1931.71
1923.14
1914.57
1906.01
1897.44
1888.87
1880.31
1871.74
1863.18
1854.61
1846.05
1837.48
1828.91
1820.35
1811.78
1803.21
1794.65
1786.08
1777.51
1768.95
1760.38
1751.81
1743.25
1734.68
1726.12
1717.55
1708.98
1700.42
1691.85
1683.28
1674.72
1666.15
1657.58
1649.02
1640.45
1631.89
1623.32
1614.75
1606.19
1597.62
1589.05
1580.49
1571.92
1563.35
1554.79
1546.22
1537.66
1529.09
1520.52
1511.96
1503.39
1494.82
1486.26
1477.69
1469.13
1460.56
1451.99
1443.42
1434.86
1426.29
1417.73
1409.16
1400.59
1392.03
1383.46
1374.89
1366.33
1357.76
1349.2
1340.63
1332.06
1323.5
1314.93
1306.36
1297.8
1289.23
1280.67
1272.1
1263.53
1254.97
1246.4
1237.83
1229.27
1220.7
1212.14
1203.57
1195
1186.43
1177.87
1169.3
1160.74
1152.17
1143.61
1135.04
1126.47
1117.9
1109.34
1100.77
1092.21
1083.64
1075.07
1066.51
1057.94
1049.37
1040.81
1032.24
1023.68
1015.11
1006.54
997.973
989.404
980.837
972.272
963.708
955.144
946.579
938.012
929.444
920.875
912.308
903.742
895.177
886.612
878.047
869.48
860.911
852.343
843.775
835.209
826.644
818.081
809.517
800.951
792.384
783.814
775.245
766.677
758.111
749.547
740.984
732.421
723.857
715.29
706.721
698.151
689.581
681.013
672.447
663.884
655.321
646.759
638.195
629.63
621.062
612.493
603.923
595.353
586.786
578.22
569.657
561.094
552.531
543.967
535.402
526.834
518.265
509.695
501.126
492.557
483.989
475.423
466.857
458.292
449.727
441.161
432.594
424.026
415.458
406.889
398.322
389.755
381.189
372.624
364.059
355.494
346.929
338.363
329.796
321.23
312.663
304.097
295.532
286.968
278.406
269.846
261.285
252.725
244.164
235.601
227.035
218.467
209.896
201.322
192.747
184.17
175.592
167.016
158.442
149.869
141.299
132.732
124.167
115.603
107.041
98.48
89.9185
81.3565
72.794
64.2306
55.6663
47.1014
38.5362
29.9711
21.4066
12.8428
4.2812
2147.28
292.555
1526.75
2417.24
2383.86
2108.3
2008.51
2044.12
2078.97
2073.87
2053.81
2039.86
2032.64
2026.17
2018.01
2008.98
2000.12
1991.58
1983.11
1974.57
1965.98
1957.4
1948.83
1940.27
1931.7
1923.14
1914.57
1906.01
1897.44
1888.87
1880.31
1871.74
1863.18
1854.61
1846.04
1837.48
1828.91
1820.34
1811.78
1803.21
1794.65
1786.08
1777.51
1768.95
1760.38
1751.81
1743.25
1734.68
1726.11
1717.55
1708.98
1700.42
1691.85
1683.28
1674.71
1666.15
1657.59
1649.02
1640.45
1631.89
1623.32
1614.75
1606.19
1597.62
1589.05
1580.49
1571.92
1563.35
1554.79
1546.22
1537.66
1529.09
1520.52
1511.96
1503.39
1494.82
1486.26
1477.69
1469.13
1460.56
1451.99
1443.42
1434.86
1426.29
1417.73
1409.16
1400.59
1392.03
1383.46
1374.89
1366.33
1357.76
1349.2
1340.63
1332.06
1323.5
1314.93
1306.36
1297.8
1289.23
1280.67
1272.1
1263.53
1254.96
1246.4
1237.83
1229.27
1220.7
1212.14
1203.57
1195
1186.43
1177.87
1169.3
1160.74
1152.17
1143.6
1135.04
1126.47
1117.9
1109.34
1100.77
1092.21
1083.64
1075.07
1066.5
1057.94
1049.37
1040.81
1032.24
1023.68
1015.11
1006.54
997.973
989.404
980.838
972.273
963.709
955.145
946.579
938.012
929.444
920.875
912.309
903.743
895.178
886.613
878.046
869.479
860.911
852.343
843.776
835.211
826.646
818.082
809.517
800.951
792.383
783.814
775.245
766.678
758.113
749.549
740.986
732.422
723.857
715.289
706.72
698.15
689.58
681.013
672.448
663.885
655.323
646.76
638.195
629.629
621.06
612.49
603.92
595.352
586.785
578.22
569.657
561.094
552.532
543.967
535.401
526.833
518.264
509.694
501.125
492.557
483.989
475.423
466.858
458.293
449.728
441.161
432.594
424.026
415.458
406.889
398.322
389.755
381.19
372.625
364.06
355.495
346.93
338.364
329.797
321.23
312.663
304.096
295.531
286.968
278.406
269.845
261.285
252.725
244.164
235.601
227.035
218.467
209.896
201.322
192.747
184.17
175.593
167.017
158.442
149.87
141.3
132.733
124.168
115.604
107.042
98.4807
89.9191
81.3571
72.7943
64.2308
55.6664
47.1014
38.5361
29.971
21.4065
12.8428
4.28106
2147.27
292.553
1526.74
2417.23
2383.86
2108.3
2008.51
2044.13
2078.98
2073.88
2053.82
2039.87
2032.64
2026.17
2018.01
2008.97
2000.11
1991.58
1983.11
1974.57
1965.98
1957.4
1948.83
1940.27
1931.7
1923.14
1914.57
1906.01
1897.44
1888.87
1880.31
1871.74
1863.18
1854.61
1846.04
1837.48
1828.91
1820.34
1811.78
1803.21
1794.65
1786.08
1777.51
1768.95
1760.38
1751.82
1743.25
1734.68
1726.11
1717.55
1708.98
1700.42
1691.85
1683.28
1674.72
1666.15
1657.59
1649.02
1640.45
1631.89
1623.32
1614.75
1606.19
1597.62
1589.05
1580.49
1571.92
1563.35
1554.79
1546.22
1537.66
1529.09
1520.52
1511.96
1503.39
1494.82
1486.26
1477.69
1469.13
1460.56
1451.99
1443.42
1434.86
1426.29
1417.73
1409.16
1400.59
1392.03
1383.46
1374.89
1366.33
1357.76
1349.2
1340.63
1332.06
1323.5
1314.93
1306.36
1297.8
1289.23
1280.67
1272.1
1263.53
1254.96
1246.4
1237.83
1229.27
1220.7
1212.14
1203.57
1195
1186.43
1177.87
1169.3
1160.74
1152.17
1143.6
1135.04
1126.47
1117.9
1109.34
1100.77
1092.21
1083.64
1075.07
1066.5
1057.94
1049.37
1040.81
1032.24
1023.68
1015.11
1006.54
997.973
989.405
980.839
972.274
963.709
955.145
946.579
938.011
929.443
920.876
912.309
903.744
895.178
886.612
878.046
869.478
860.91
852.343
843.777
835.212
826.648
818.083
809.517
800.95
792.381
783.813
775.245
766.679
758.114
749.551
740.988
732.423
723.856
715.288
706.718
698.148
689.579
681.013
672.449
663.886
655.324
646.761
638.195
629.628
621.058
612.488
603.919
595.35
586.784
578.22
569.658
561.095
552.532
543.967
535.401
526.833
518.263
509.693
501.124
492.556
483.989
475.424
466.859
458.294
449.728
441.162
432.594
424.026
415.458
406.889
398.322
389.756
381.19
372.625
364.061
355.496
346.93
338.364
329.797
321.23
312.662
304.096
295.53
286.967
278.405
269.844
261.284
252.724
244.163
235.6
227.035
218.467
209.896
201.322
192.747
184.17
175.594
167.018
158.443
149.871
141.301
132.734
124.169
115.605
107.043
98.4815
89.9199
81.3577
72.7948
64.2311
55.6665
47.1014
38.5361
29.9709
21.4064
12.8428
4.28095
2147.28
292.556
1526.74
2417.23
2383.86
2108.3
2008.52
2044.13
2078.98
2073.88
2053.81
2039.86
2032.64
2026.17
2018.01
2008.98
2000.12
1991.58
1983.11
1974.57
1965.98
1957.4
1948.83
1940.27
1931.7
1923.14
1914.57
1906.01
1897.44
1888.87
1880.31
1871.74
1863.17
1854.61
1846.04
1837.48
1828.91
1820.34
1811.78
1803.21
1794.65
1786.08
1777.51
1768.95
1760.38
1751.82
1743.25
1734.68
1726.12
1717.55
1708.98
1700.42
1691.85
1683.28
1674.72
1666.15
1657.58
1649.02
1640.45
1631.89
1623.32
1614.75
1606.18
1597.62
1589.06
1580.49
1571.92
1563.35
1554.79
1546.22
1537.66
1529.09
1520.52
1511.96
1503.39
1494.82
1486.26
1477.69
1469.12
1460.56
1451.99
1443.43
1434.86
1426.29
1417.73
1409.16
1400.6
1392.03
1383.46
1374.89
1366.33
1357.76
1349.2
1340.63
1332.06
1323.5
1314.93
1306.36
1297.8
1289.23
1280.67
1272.1
1263.53
1254.96
1246.4
1237.83
1229.27
1220.7
1212.14
1203.57
1195
1186.43
1177.87
1169.3
1160.74
1152.17
1143.6
1135.03
1126.47
1117.9
1109.34
1100.77
1092.21
1083.64
1075.07
1066.5
1057.94
1049.37
1040.81
1032.24
1023.68
1015.11
1006.54
997.973
989.406
980.84
972.275
963.71
955.144
946.578
938.011
929.443
920.877
912.31
903.745
895.179
886.613
878.045
869.478
860.911
852.344
843.779
835.214
826.65
818.084
809.517
800.949
792.38
783.812
775.246
766.68
758.117
749.553
740.989
732.424
723.856
715.286
706.716
698.147
689.579
681.013
672.45
663.887
655.325
646.761
638.195
629.627
621.057
612.486
603.917
595.349
586.784
578.22
569.658
561.096
552.532
543.967
535.4
526.831
518.262
509.692
501.123
492.556
483.99
475.424
466.86
458.295
449.729
441.162
432.595
424.026
415.458
406.89
398.322
389.756
381.191
372.626
364.062
355.497
346.931
338.365
329.797
321.23
312.662
304.095
295.529
286.966
278.404
269.843
261.283
252.723
244.162
235.6
227.035
218.467
209.896
201.322
192.747
184.171
175.594
167.018
158.444
149.872
141.302
132.735
124.17
115.607
107.044
98.4824
89.9205
81.3582
72.7952
64.2313
55.6666
47.1013
38.5359
29.9707
21.4063
12.8428
4.28081
2147.28
292.557
1526.74
2417.23
2383.86
2108.3
2008.51
2044.12
2078.97
2073.88
2053.82
2039.86
2032.64
2026.17
2018
2008.97
2000.12
1991.58
1983.11
1974.57
1965.98
1957.4
1948.83
1940.27
1931.71
1923.14
1914.57
1906.01
1897.44
1888.87
1880.31
1871.74
1863.18
1854.61
1846.05
1837.48
1828.91
1820.34
1811.78
1803.21
1794.65
1786.08
1777.51
1768.95
1760.38
1751.82
1743.25
1734.68
1726.12
1717.55
1708.98
1700.42
1691.85
1683.28
1674.72
1666.15
1657.58
1649.02
1640.45
1631.89
1623.32
1614.75
1606.19
1597.62
1589.06
1580.49
1571.92
1563.35
1554.79
1546.22
1537.66
1529.09
1520.52
1511.96
1503.39
1494.82
1486.26
1477.69
1469.13
1460.56
1451.99
1443.43
1434.86
1426.29
1417.73
1409.16
1400.6
1392.03
1383.46
1374.89
1366.33
1357.76
1349.2
1340.63
1332.06
1323.49
1314.93
1306.36
1297.8
1289.23
1280.67
1272.1
1263.53
1254.96
1246.4
1237.83
1229.27
1220.7
1212.14
1203.57
1195
1186.43
1177.87
1169.3
1160.74
1152.17
1143.6
1135.03
1126.47
1117.9
1109.34
1100.77
1092.21
1083.64
1075.07
1066.5
1057.94
1049.37
1040.81
1032.24
1023.67
1015.11
1006.54
997.973
989.407
980.841
972.276
963.71
955.143
946.576
938.01
929.443
920.877
912.311
903.746
895.179
886.612
878.045
869.477
860.911
852.345
843.78
835.216
826.651
818.084
809.517
800.948
792.379
783.812
775.246
766.682
758.119
749.555
740.991
732.424
723.855
715.285
706.715
698.145
689.578
681.014
672.451
663.889
655.326
646.761
638.194
629.625
621.055
612.484
603.915
595.348
586.783
578.22
569.658
561.096
552.532
543.967
535.399
526.83
518.261
509.691
501.123
492.556
483.99
475.425
466.86
458.296
449.73
441.163
432.595
424.026
415.458
406.89
398.323
389.757
381.192
372.627
364.063
355.498
346.932
338.365
329.798
321.229
312.661
304.094
295.529
286.965
278.403
269.842
261.283
252.723
244.162
235.599
227.034
218.466
209.896
201.322
192.747
184.171
175.595
167.019
158.445
149.873
141.304
132.736
124.171
115.608
107.045
98.4833
89.9213
81.3588
72.7955
64.2315
55.6666
47.1012
38.5358
29.9706
21.4061
12.8428
4.28068
2147.28
292.553
1526.74
2417.23
2383.86
2108.3
2008.51
2044.13
2078.97
2073.87
2053.82
2039.86
2032.64
2026.17
2018.01
2008.98
2000.12
1991.58
1983.11
1974.57
1965.98
1957.4
1948.83
1940.27
1931.71
1923.14
1914.57
1906.01
1897.44
1888.88
1880.31
1871.74
1863.18
1854.61
1846.04
1837.48
1828.91
1820.34
1811.78
1803.21
1794.65
1786.08
1777.51
1768.95
1760.38
1751.81
1743.25
1734.68
1726.11
1717.55
1708.98
1700.42
1691.85
1683.28
1674.72
1666.15
1657.58
1649.02
1640.45
1631.89
1623.32
1614.75
1606.19
1597.62
1589.05
1580.49
1571.92
1563.35
1554.79
1546.22
1537.65
1529.09
1520.52
1511.96
1503.39
1494.82
1486.25
1477.69
1469.13
1460.56
1451.99
1443.42
1434.85
1426.29
1417.73
1409.16
1400.6
1392.03
1383.46
1374.89
1366.33
1357.76
1349.2
1340.63
1332.06
1323.49
1314.93
1306.36
1297.8
1289.23
1280.67
1272.1
1263.53
1254.96
1246.4
1237.83
1229.27
1220.7
1212.13
1203.57
1195
1186.43
1177.87
1169.3
1160.74
1152.17
1143.6
1135.03
1126.47
1117.9
1109.34
1100.77
1092.21
1083.64
1075.07
1066.5
1057.94
1049.37
1040.81
1032.24
1023.67
1015.11
1006.54
997.975
989.409
980.843
972.276
963.71
955.143
946.576
938.009
929.444
920.878
912.313
903.747
895.18
886.612
878.044
869.477
860.911
852.347
843.782
835.218
826.652
818.085
809.516
800.947
792.379
783.812
775.247
766.683
758.121
749.557
740.992
732.424
723.854
715.284
706.713
698.145
689.578
681.014
672.452
663.89
655.327
646.761
638.193
629.624
621.053
612.483
603.914
595.347
586.783
578.221
569.659
561.096
552.532
543.966
535.398
526.829
518.26
509.69
501.122
492.556
483.99
475.426
466.861
458.296
449.73
441.163
432.595
424.026
415.458
406.89
398.323
389.757
381.193
372.628
364.064
355.499
346.933
338.366
329.798
321.229
312.661
304.094
295.528
286.964
278.402
269.841
261.282
252.722
244.161
235.599
227.034
218.466
209.895
201.322
192.747
184.171
175.595
167.02
158.446
149.874
141.305
132.738
124.173
115.609
107.046
98.4842
89.922
81.3593
72.7958
64.2316
55.6666
47.1011
38.5356
29.9704
21.406
12.8428
4.28055
2147.29
292.556
1526.74
2417.23
2383.86
2108.3
2008.52
2044.13
2078.97
2073.88
2053.82
2039.86
2032.64
2026.17
2018
2008.97
2000.12
1991.58
1983.11
1974.56
1965.98
1957.4
1948.83
1940.27
1931.71
1923.14
1914.57
1906
1897.44
1888.88
1880.31
1871.74
1863.17
1854.61
1846.05
1837.48
1828.91
1820.35
1811.78
1803.21
1794.65
1786.08
1777.51
1768.95
1760.38
1751.82
1743.25
1734.68
1726.11
1717.55
1708.98
1700.42
1691.85
1683.28
1674.72
1666.15
1657.59
1649.02
1640.45
1631.89
1623.32
1614.75
1606.19
1597.62
1589.05
1580.49
1571.92
1563.36
1554.79
1546.22
1537.65
1529.09
1520.53
1511.96
1503.39
1494.82
1486.25
1477.69
1469.13
1460.56
1451.99
1443.42
1434.85
1426.29
1417.73
1409.16
1400.6
1392.03
1383.46
1374.89
1366.33
1357.76
1349.2
1340.63
1332.06
1323.49
1314.93
1306.36
1297.8
1289.23
1280.67
1272.1
1263.53
1254.96
1246.4
1237.83
1229.27
1220.7
1212.13
1203.57
1195
1186.43
1177.87
1169.3
1160.74
1152.17
1143.6
1135.04
1126.47
1117.9
1109.34
1100.77
1092.2
1083.64
1075.07
1066.5
1057.94
1049.37
1040.8
1032.24
1023.67
1015.11
1006.54
997.976
989.41
980.843
972.276
963.708
955.141
946.574
938.009
929.444
920.879
912.314
903.747
895.18
886.611
878.044
869.477
860.912
852.348
843.784
835.219
826.653
818.085
809.516
800.946
792.378
783.812
775.248
766.685
758.122
749.558
740.992
732.424
723.853
715.282
706.712
698.144
689.579
681.015
672.453
663.891
655.327
646.761
638.192
629.622
621.051
612.481
603.913
595.347
586.783
578.221
569.659
561.096
552.532
543.966
535.397
526.828
518.259