/*--------------------------------*- C++ -*----------------------------------*\
| =========                 |                                                 |
| \\      /  F ield         | OpenFOAM: The Open Source CFD Toolbox           |
|  \\    /   O peration     | Version:  2406                                  |
|   \\  /    A nd           | Website:  www.openfoam.com                      |
|    \\/     M anipulation  |                                                 |
\*---------------------------------------------------------------------------*/
FoamFile
{
    version     2.0;
    format      ascii;
    arch        "LSB;label=32;scalar=64";
    class       surfaceScalarField;
    location    "0.35";
    object      phi;
}
// * * * * * * * * * * * * * * * * * * * * * * * * * * * * * * * * * * * * * //

dimensions      [0 3 -1 0 0 0 0];

oriented        oriented;

internalField   nonuniform List<scalar> 
12225
(
0.387185
6.46315e-07
0.38718
5.17318e-06
0.387173
6.9516e-06
0.387168
4.85544e-06
0.387164
4.07368e-06
0.38716
4.11795e-06
0.387155
4.91178e-06
0.387149
5.74017e-06
0.387143
6.43706e-06
0.387137
5.94624e-06
0.387131
5.6004e-06
0.387126
5.50615e-06
0.387121
5.25728e-06
0.387116
4.53004e-06
0.387112
3.62777e-06
0.387109
3.31917e-06
0.387105
3.78124e-06
0.387101
4.25234e-06
0.387096
4.51016e-06
0.387091
5.19974e-06
0.387085
5.95698e-06
0.387079
6.34265e-06
0.387072
6.65414e-06
0.387065
6.89919e-06
0.387059
6.39233e-06
0.387053
5.63557e-06
0.387048
5.35201e-06
0.387043
5.04432e-06
0.387039
4.29256e-06
0.387035
3.9315e-06
0.38703
4.75546e-06
0.387024
6.21765e-06
0.387017
7.21277e-06
0.387009
7.13262e-06
0.387003
6.58478e-06
0.386997
6.04654e-06
0.386991
5.52074e-06
0.386986
5.16711e-06
0.386981
5.1428e-06
0.386976
5.4455e-06
0.38697
5.99207e-06
0.386963
6.53442e-06
0.386956
6.75688e-06
0.38695
6.57571e-06
0.386944
6.03615e-06
0.386938
5.21718e-06
0.386934
4.41714e-06
0.38693
4.11105e-06
0.386926
4.37118e-06
0.386921
4.67395e-06
0.386916
4.62135e-06
0.386912
4.2833e-06
0.386908
3.79781e-06
0.386905
3.10377e-06
0.386903
2.28509e-06
0.386901
1.77871e-06
0.386899
1.95965e-06
0.386897
2.43269e-06
0.386894
2.57169e-06
0.386892
2.32138e-06
0.38689
1.97798e-06
0.386888
1.56318e-06
0.386887
9.68617e-07
0.386887
3.28753e-07
0.386887
1.20629e-07
0.386886
7.17091e-07
0.386885
1.383e-06
0.386883
1.40963e-06
0.386882
9.53903e-07
0.386882
5.13922e-07
0.386881
3.37324e-07
0.386881
4.15313e-07
0.386881
4.60312e-07
0.38688
4.18291e-07
0.38688
4.25373e-07
0.386879
5.14078e-07
0.386879
5.47324e-07
0.386878
3.89062e-07
0.386878
1.81614e-07
0.386878
5.5561e-08
0.386878
1.35088e-07
0.386878
2.97393e-07
0.386877
2.87074e-07
0.386877
1.15092e-07
0.386877
6.48172e-08
0.386877
2.30166e-07
0.386876
4.33221e-07
0.386876
3.832e-07
0.386876
7.27492e-08
0.386876
-2.12989e-07
0.386876
-2.49529e-07
0.386877
-1.08781e-07
0.386877
-4.27733e-08
0.386877
-2.07571e-07
0.386877
-5.14688e-07
0.386878
-7.74273e-07
0.386879
-8.70266e-07
0.38688
-8.39365e-07
0.386881
-7.80444e-07
0.386881
-7.59678e-07
0.386882
-7.71847e-07
0.386883
-7.61541e-07
0.386884
-6.93977e-07
0.386884
-5.94222e-07
0.386885
-5.37486e-07
0.386885
-5.70492e-07
0.386886
-6.57729e-07
0.386887
-6.85932e-07
0.386887
-5.77298e-07
0.386888
-4.03189e-07
0.386888
-3.14728e-07
0.386888
-4.52334e-07
0.386889
-7.3075e-07
0.38689
-9.67709e-07
0.386891
-1.03359e-06
0.386892
-9.88467e-07
0.386893
-9.9421e-07
0.386894
-1.14258e-06
0.386896
-1.40011e-06
0.386897
-1.67193e-06
0.386899
-1.88766e-06
0.386901
-2.00954e-06
0.386903
-2.00384e-06
0.386905
-1.85723e-06
0.386907
-1.62515e-06
0.386908
-1.42024e-06
0.386909
-1.31652e-06
0.386911
-1.26384e-06
0.386912
-1.13433e-06
0.386913
-8.6489e-07
0.386913
-5.40784e-07
0.386914
-3.25631e-07
0.386914
-3.1094e-07
0.386914
-4.14208e-07
0.386915
-4.44883e-07
0.386915
-2.93469e-07
0.386915
-3.12596e-08
0.386915
1.28527e-07
0.386915
5.3738e-08
0.386915
-1.99164e-07
0.386916
-4.19057e-07
0.386916
-4.19764e-07
0.386916
-2.07698e-07
0.386916
5.03919e-08
0.386916
1.44593e-07
0.386916
4.47984e-08
0.386916
-1.27173e-07
0.386916
-2.44962e-07
0.386917
-2.76817e-07
0.386917
-2.86948e-07
0.386917
-3.14927e-07
0.386917
-3.15401e-07
0.386918
-2.42071e-07
0.386918
-8.62975e-08
0.386918
6.00479e-08
0.386918
5.24666e-08
0.386918
-1.49389e-07
0.386918
-4.19462e-07
0.386919
-5.7792e-07
0.386919
-4.84731e-07
0.386919
-1.4566e-07
0.386919
3.30678e-07
0.386918
6.64463e-07
0.386918
7.58066e-07
0.386917
6.64234e-07
0.386917
5.02164e-07
0.386916
3.66128e-07
0.386916
2.7792e-07
0.386916
1.88203e-07
0.386916
1.85921e-07
0.386915
3.51409e-07
0.386915
6.29595e-07
0.386914
8.70065e-07
0.386913
9.14346e-07
0.386912
7.36851e-07
0.386912
4.54427e-07
0.386911
2.21593e-07
0.386911
1.23595e-07
0.386911
1.29184e-07
0.386911
1.53147e-07
0.386911
2.32342e-07
0.38691
3.58782e-07
0.38691
4.88202e-07
0.386909
5.60571e-07
0.386909
5.34769e-07
0.386908
4.24628e-07
0.386908
2.70175e-07
0.386908
1.18659e-07
0.386908
1.73428e-08
0.386908
6.77602e-09
0.386908
8.50633e-08
0.386908
2.43177e-07
0.386907
3.95205e-07
0.386907
4.68537e-07
0.386906
4.5369e-07
0.386906
3.92295e-07
0.386906
3.26588e-07
0.386905
2.63414e-07
0.386905
1.79327e-07
0.386905
7.90057e-08
0.386905
1.456e-08
0.386905
3.43378e-08
0.386905
1.32001e-07
0.386905
2.55799e-07
0.386904
3.43514e-07
0.386904
3.61626e-07
0.386904
3.10647e-07
0.386903
2.10979e-07
0.386903
9.53886e-08
0.386903
-1.073e-08
0.386903
-8.94415e-08
0.386904
-1.34895e-07
0.386904
-1.60598e-07
0.386904
-1.69956e-07
0.386904
-1.52049e-07
0.386904
-1.04217e-07
0.386904
-8.67873e-09
0.386904
8.26633e-08
0.386904
1.38204e-07
0.386904
1.48481e-07
0.386904
1.16829e-07
0.386904
5.03772e-08
0.386904
-3.4184e-08
0.386904
-1.1954e-07
0.386904
-1.75089e-07
0.386904
-1.68475e-07
0.386904
-1.10816e-07
0.386904
-5.0382e-08
0.386904
-1.65737e-08
0.386904
-3.6733e-11
0.386904
2.58439e-08
0.386904
7.56385e-08
0.386904
1.05562e-07
0.386904
6.90832e-08
0.386904
-4.72093e-08
0.386904
-2.30667e-07
0.386905
-4.18373e-07
0.386905
-5.85062e-07
0.386906
-7.57759e-07
0.386907
-9.58446e-07
0.386908
-1.1662e-06
0.386909
-1.31022e-06
0.386911
-1.31928e-06
0.386912
-1.19381e-06
0.386913
-1.01084e-06
0.386914
-8.55036e-07
0.386915
-7.3793e-07
0.386915
-6.5587e-07
0.386916
-4.91577e-07
-4.85038e-07
0.387187
8.32902e-07
0.387191
1.29963e-06
0.387196
1.80264e-06
0.387198
2.51599e-06
0.387199
2.85438e-06
0.387202
2.01369e-06
0.387204
2.27834e-06
0.387208
2.03732e-06
0.387213
1.83899e-06
0.387216
2.23889e-06
0.38722
2.16358e-06
0.387223
1.89864e-06
0.387226
2.18588e-06
0.387228
2.74525e-06
0.387228
3.28709e-06
0.387228
3.33067e-06
0.387229
3.11171e-06
0.38723
3.06862e-06
0.387232
2.62234e-06
0.387236
1.72994e-06
0.38724
1.15565e-06
0.387246
9.73921e-07
0.387252
8.40465e-07
0.387257
1.04401e-06
0.387262
1.5945e-06
0.387266
2.22475e-06
0.387268
2.98154e-06
0.387269
4.02452e-06
0.387269
4.82861e-06
0.387268
4.60912e-06
0.387269
3.56622e-06
0.387273
2.4588e-06
0.387278
1.71218e-06
0.387284
1.30247e-06
0.38729
1.11394e-06
0.387295
1.10365e-06
0.387299
1.35922e-06
0.387302
1.92222e-06
0.387305
2.49949e-06
0.387307
2.76742e-06
0.387311
2.7347e-06
0.387315
2.58996e-06
0.387319
2.53268e-06
0.387323
2.64951e-06
0.387326
2.81003e-06
0.387328
2.71899e-06
0.387331
2.15478e-06
0.387333
1.41436e-06
0.387337
1.11051e-06
0.38734
1.36139e-06
0.387343
1.86041e-06
0.387345
2.35509e-06
0.387346
2.8261e-06
0.387346
3.13603e-06
0.387345
3.02663e-06
0.387344
2.5781e-06
0.387344
2.31179e-06
0.387344
2.47049e-06
0.387344
2.64582e-06
0.387343
2.48737e-06
0.387343
2.30331e-06
0.387342
2.55534e-06
0.38734
3.08246e-06
0.387337
3.23929e-06
0.387334
2.80223e-06
0.387333
2.37302e-06
0.387332
2.37775e-06
0.38733
2.63947e-06
0.387329
2.75367e-06
0.387327
2.60597e-06
0.387325
2.35077e-06
0.387323
2.15812e-06
0.387321
2.057e-06
0.38732
2.02677e-06
0.387318
2.04974e-06
0.387316
2.09989e-06
0.387315
2.16069e-06
0.387313
2.2214e-06
0.387311
2.26357e-06
0.387309
2.24908e-06
0.387307
2.21744e-06
0.387305
2.23059e-06
0.387303
2.26833e-06
0.387301
2.26916e-06
0.387298
2.25901e-06
0.387296
2.32586e-06
0.387294
2.48101e-06
0.387292
2.56959e-06
0.38729
2.45254e-06
0.387287
2.21314e-06
0.387285
2.06174e-06
0.387283
2.06545e-06
0.387281
2.07406e-06
0.387278
1.92521e-06
0.387276
1.653e-06
0.387274
1.42387e-06
0.387272
1.33754e-06
0.38727
1.33502e-06
0.387268
1.299e-06
0.387266
1.17807e-06
0.387264
1.01369e-06
0.387262
8.8184e-07
0.387261
8.3402e-07
0.387259
8.92497e-07
0.387258
1.0493e-06
0.387256
1.25644e-06
0.387254
1.42654e-06
0.387252
1.48299e-06
0.38725
1.4176e-06
0.387248
1.28197e-06
0.387246
1.1294e-06
0.387245
9.50101e-07
0.387244
7.21916e-07
0.387242
4.58786e-07
0.387241
2.18166e-07
0.38724
9.6656e-09
0.387239
-2.23835e-07
0.387239
-5.19774e-07
0.387238
-8.1408e-07
0.387237
-9.71245e-07
0.387236
-9.28696e-07
0.387235
-7.69091e-07
0.387234
-6.28626e-07
0.387232
-5.56065e-07
0.387231
-4.89122e-07
0.38723
-3.59324e-07
0.387229
-1.87597e-07
0.387228
-5.80851e-08
0.387227
-2.94051e-08
0.387226
-7.41177e-08
0.387226
-1.16311e-07
0.387225
-1.17868e-07
0.387225
-9.24258e-08
0.387225
-9.39646e-08
0.387224
-1.14796e-07
0.387224
-8.87381e-08
0.387224
4.84035e-08
0.387224
2.60119e-07
0.387224
4.06942e-07
0.387223
3.66382e-07
0.387223
1.4217e-07
0.387222
-1.07487e-07
0.387222
-2.30792e-07
0.387223
-1.93313e-07
0.387223
-1.24937e-07
0.387223
-1.91192e-07
0.387223
-4.36563e-07
0.387224
-7.28194e-07
0.387224
-8.75845e-07
0.387225
-8.04748e-07
0.387225
-5.95484e-07
0.387225
-3.96898e-07
0.387225
-3.0447e-07
0.387226
-3.02459e-07
0.387226
-3.26184e-07
0.387226
-3.51394e-07
0.387227
-3.85881e-07
0.387227
-4.37056e-07
0.387227
-4.86607e-07
0.387227
-4.83454e-07
0.387227
-3.93726e-07
0.387227
-2.01757e-07
0.387228
-1.1879e-09
0.387229
7.8154e-08
0.387229
-5.98901e-09
0.38723
-1.92101e-07
0.387231
-3.14181e-07
0.387231
-3.41811e-07
0.387232
-3.36079e-07
0.387232
-3.65481e-07
0.387233
-4.19767e-07
0.387234
-4.27313e-07
0.387235
-3.38147e-07
0.387237
-2.07172e-07
0.387237
-1.46449e-07
0.387238
-2.13662e-07
0.387239
-3.46964e-07
0.387239
-4.40521e-07
0.38724
-4.41845e-07
0.38724
-3.81253e-07
0.387241
-2.99717e-07
0.387241
-2.10661e-07
0.387242
-1.02763e-07
0.387243
2.1627e-08
0.387243
1.42223e-07
0.387243
2.38221e-07
0.387243
3.06419e-07
0.387243
3.47761e-07
0.387243
3.54242e-07
0.387242
3.27956e-07
0.387242
3.08036e-07
0.387242
3.64047e-07
0.387242
5.23702e-07
0.387241
7.44531e-07
0.387241
9.48985e-07
0.38724
1.09208e-06
0.387239
1.18928e-06
0.387238
1.27718e-06
0.387237
1.35673e-06
0.387236
1.39558e-06
0.387235
1.37589e-06
0.387233
1.32659e-06
0.387232
1.30503e-06
0.387231
1.35347e-06
0.38723
1.47552e-06
0.387229
1.64685e-06
0.387227
1.83276e-06
0.387225
1.99521e-06
0.387223
2.09759e-06
0.387221
2.12043e-06
0.387219
2.08114e-06
0.387217
2.01633e-06
0.387215
1.95129e-06
0.387213
1.89628e-06
0.387211
1.85373e-06
0.387209
1.82486e-06
0.387207
1.81718e-06
0.387205
1.81683e-06
0.387203
1.79739e-06
0.387202
1.74423e-06
0.3872
1.66911e-06
0.387199
1.59081e-06
0.387197
1.50332e-06
0.387196
1.38375e-06
0.387194
1.23234e-06
0.387193
1.08817e-06
0.387192
9.95803e-07
0.387191
9.4733e-07
0.38719
8.7213e-07
0.387189
6.8034e-07
0.387189
3.39348e-07
0.387189
-7.69373e-08
0.38719
-5.03124e-07
0.387191
-9.01071e-07
0.387192
-1.29071e-06
0.387194
-1.7007e-06
0.387195
-2.10813e-06
0.387197
-2.46474e-06
0.387199
-2.74203e-06
0.387201
-2.93808e-06
0.387203
-3.07784e-06
0.387205
-3.18205e-06
0.387207
-3.24397e-06
0.387209
-3.24367e-06
0.387211
-3.17749e-06
0.387213
-3.08082e-06
0.387215
-3.00692e-06
0.387218
-2.95555e-06
0.38722
-2.97507e-06
-2.81655e-06
0.387188
7.13696e-07
0.387188
1.46741e-06
0.387188
1.89265e-06
0.387188
1.90263e-06
0.387189
2.04583e-06
0.387189
1.8527e-06
0.38719
1.89843e-06
0.38719
2.03806e-06
0.387189
2.08516e-06
0.38719
2.02737e-06
0.38719
2.24009e-06
0.387189
2.68636e-06
0.387188
3.00647e-06
0.387188
2.61599e-06
0.387189
2.21634e-06
0.38719
2.24089e-06
0.387191
2.15697e-06
0.387192
2.26387e-06
0.387192
2.76596e-06
0.38719
3.19621e-06
0.387188
3.21278e-06
0.387186
3.02597e-06
0.387184
2.62135e-06
0.387183
2.48637e-06
0.387182
2.51538e-06
0.387182
1.97664e-06
0.387184
1.32758e-06
0.387187
1.0286e-06
0.387191
1.24299e-06
0.387193
1.82131e-06
0.387195
2.14561e-06
0.387195
2.31246e-06
0.387194
2.64694e-06
0.387192
3.04394e-06
0.38719
3.34373e-06
0.387188
3.41667e-06
0.387186
3.14133e-06
0.387185
2.77098e-06
0.387185
2.58375e-06
0.387185
2.40368e-06
0.387186
2.0541e-06
0.387187
1.75447e-06
0.387188
1.63654e-06
0.387189
1.57751e-06
0.38719
1.66911e-06
0.387191
2.10072e-06
0.38719
2.66057e-06
0.387189
2.86878e-06
0.387187
2.65976e-06
0.387186
2.31343e-06
0.387186
1.93664e-06
0.387187
1.4706e-06
0.387189
1.07787e-06
0.387191
1.03103e-06
0.387193
1.31102e-06
0.387194
1.49076e-06
0.387195
1.38577e-06
0.387196
1.29912e-06
0.387197
1.35619e-06
0.387198
1.25496e-06
0.3872
8.81798e-07
0.387202
6.28825e-07
0.387204
8.93525e-07
0.387206
1.49331e-06
0.387207
1.72862e-06
0.387207
1.47674e-06
0.387209
1.23938e-06
0.38721
1.43098e-06
0.387211
1.94313e-06
0.387211
2.38535e-06
0.387211
2.54131e-06
0.38721
2.48347e-06
0.38721
2.38718e-06
0.38721
2.32756e-06
0.38721
2.23663e-06
0.38721
2.02888e-06
0.38721
1.75199e-06
0.387211
1.55724e-06
0.387211
1.51541e-06
0.387212
1.51344e-06
0.387213
1.41379e-06
0.387214
1.2582e-06
0.387215
1.19925e-06
0.387216
1.26911e-06
0.387217
1.3311e-06
0.387218
1.27223e-06
0.387219
1.15613e-06
0.387221
1.12212e-06
0.387222
1.20408e-06
0.387223
1.31873e-06
0.387224
1.38853e-06
0.387224
1.40351e-06
0.387225
1.37784e-06
0.387226
1.31486e-06
0.387226
1.22684e-06
0.387226
1.14476e-06
0.387227
1.06976e-06
0.387227
9.47122e-07
0.387227
7.24813e-07
0.387228
4.19307e-07
0.387229
9.81845e-08
0.38723
-1.83472e-07
0.387231
-4.34192e-07
0.387233
-6.68303e-07
0.387235
-8.39373e-07
0.387237
-8.59594e-07
0.387239
-6.98142e-07
0.387241
-4.34432e-07
0.387243
-2.00935e-07
0.387244
-5.85798e-08
0.387245
6.77748e-08
0.387246
3.08861e-07
0.387246
6.86067e-07
0.387245
1.09581e-06
0.387244
1.41835e-06
0.387242
1.594e-06
0.387241
1.62518e-06
0.387238
1.53304e-06
0.387236
1.3823e-06
0.387234
1.28066e-06
0.387232
1.29731e-06
0.38723
1.37925e-06
0.387228
1.37871e-06
0.387226
1.19556e-06
0.387224
8.88651e-07
0.387224
6.3279e-07
0.387223
5.58627e-07
0.387222
6.25627e-07
0.387221
6.75485e-07
0.387221
5.86257e-07
0.38722
3.64471e-07
0.38722
1.33373e-07
0.38722
3.28449e-08
0.38722
9.89672e-08
0.387219
2.53104e-07
0.387219
3.84161e-07
0.387218
4.45593e-07
0.387218
4.66369e-07
0.387218
4.83668e-07
0.387218
4.835e-07
0.387218
4.08006e-07
0.387217
2.29845e-07
0.387217
-6.115e-09
0.387217
-2.02782e-07
0.387217
-3.0749e-07
0.387218
-3.68081e-07
0.387218
-4.76732e-07
0.387218
-6.57642e-07
0.387217
-8.22433e-07
0.387218
-8.46958e-07
0.387218
-6.93752e-07
0.387218
-4.57593e-07
0.387218
-2.94669e-07
0.387218
-3.02997e-07
0.387218
-4.6037e-07
0.387218
-6.59943e-07
0.387219
-7.89873e-07
0.387219
-8.00495e-07
0.387219
-7.18758e-07
0.387219
-6.03649e-07
0.387219
-4.91457e-07
0.38722
-3.75467e-07
0.38722
-2.63203e-07
0.38722
-1.77997e-07
0.38722
-1.9291e-07
0.38722
-3.35756e-07
0.387221
-5.23979e-07
0.387221
-6.46653e-07
0.387221
-6.46643e-07
0.387221
-5.70392e-07
0.387221
-5.12983e-07
0.387222
-5.18802e-07
0.387222
-5.45532e-07
0.387222
-5.31492e-07
0.387222
-4.75494e-07
0.387223
-4.38635e-07
0.387223
-4.64378e-07
0.387223
-5.27283e-07
0.387223
-5.58183e-07
0.387223
-5.12116e-07
0.387223
-3.94835e-07
0.387223
-2.36453e-07
0.387223
-5.55195e-08
0.387223
1.13588e-07
0.387223
2.68875e-07
0.387223
3.78568e-07
0.387223
4.46178e-07
0.387223
4.98788e-07
0.387222
5.586e-07
0.387222
6.23853e-07
0.387222
6.88889e-07
0.387221
7.78718e-07
0.387221
9.40596e-07
0.38722
1.19433e-06
0.38722
1.4954e-06
0.387219
1.75994e-06
0.387218
1.92925e-06
0.387218
2.00735e-06
0.387217
2.03703e-06
0.387216
2.05288e-06
0.387216
2.06478e-06
0.387215
2.07984e-06
0.387214
2.12313e-06
0.387213
2.22568e-06
0.387212
2.39786e-06
0.387211
2.61964e-06
0.38721
2.85354e-06
0.387209
3.05979e-06
0.387208
3.20176e-06
0.387207
3.2519e-06
0.387206
3.20812e-06
0.387205
3.10177e-06
0.387204
2.9804e-06
0.387203
2.88168e-06
0.387202
2.82e-06
0.387201
2.79361e-06
0.3872
2.79742e-06
0.387199
2.82115e-06
0.387198
2.84139e-06
0.387197
2.82264e-06
0.387196
2.73787e-06
0.387195
2.58818e-06
0.387194
2.39504e-06
0.387193
2.17261e-06
0.387192
1.91513e-06
0.387192
1.60986e-06
0.387192
1.26714e-06
0.387192
9.27256e-07
0.387192
6.16126e-07
0.387192
2.99366e-07
0.387193
-8.49134e-08
0.387193
-5.57577e-07
0.387194
-1.0873e-06
0.387194
-1.60098e-06
0.387195
-2.06067e-06
0.387196
-2.49143e-06
0.387197
-2.94091e-06
0.387198
-3.41295e-06
0.387199
-3.85087e-06
0.3872
-4.19325e-06
0.387201
-4.426e-06
0.387203
-4.58234e-06
0.387204
-4.69843e-06
0.387206
-4.78399e-06
0.387207
-4.82697e-06
0.387209
-4.81829e-06
0.387211
-4.77761e-06
0.387213
-4.70324e-06
0.387214
-4.66647e-06
-4.44971e-06
0.387186
-5.81588e-07
0.387188
-3.0806e-07
0.387189
8.18492e-07
0.38719
1.58113e-06
0.387189
2.32067e-06
0.387189
2.13572e-06
0.387189
1.54533e-06
0.38719
1.72272e-06
0.38719
2.3164e-06
0.387189
2.32848e-06
0.387189
2.03032e-06
0.387191
1.40393e-06
0.387192
1.21866e-06
0.387193
1.71556e-06
0.387194
2.00529e-06
0.387194
1.84998e-06
0.387195
1.5082e-06
0.387196
1.3708e-06
0.387197
1.48555e-06
0.387198
1.53156e-06
0.3872
1.52365e-06
0.387201
1.87532e-06
0.387202
2.18848e-06
0.387202
1.92099e-06
0.387203
2.15255e-06
0.387202
2.59303e-06
0.387201
2.32512e-06
0.3872
1.87328e-06
0.3872
1.68395e-06
0.3872
1.69003e-06
0.3872
1.76765e-06
0.387201
1.66814e-06
0.387202
1.50955e-06
0.387204
1.57726e-06
0.387205
1.81076e-06
0.387206
1.9793e-06
0.387208
2.05023e-06
0.387208
2.08791e-06
0.387209
2.08478e-06
0.387209
2.02676e-06
0.387209
2.00401e-06
0.387209
2.13137e-06
0.387208
2.26587e-06
0.387208
2.13106e-06
0.387208
1.79669e-06
0.387208
1.64839e-06
0.387209
1.87881e-06
0.387209
2.17682e-06
0.38721
2.29827e-06
0.38721
2.31858e-06
0.387209
2.32647e-06
0.387209
2.19796e-06
0.387208
1.87776e-06
0.387207
1.63755e-06
0.387207
1.70688e-06
0.387206
1.86269e-06
0.387206
1.77763e-06
0.387206
1.59125e-06
0.387205
1.69165e-06
0.387205
2.05944e-06
0.387203
2.28599e-06
0.387202
2.19328e-06
0.387201
2.08906e-06
0.3872
2.2159e-06
0.387199
2.32543e-06
0.387199
2.13505e-06
0.387198
1.78181e-06
0.387198
1.61381e-06
0.387198
1.70245e-06
0.387199
1.81556e-06
0.387199
1.77472e-06
0.3872
1.64567e-06
0.387201
1.59341e-06
0.387202
1.6703e-06
0.387202
1.78459e-06
0.387202
1.81891e-06
0.387202
1.76016e-06
0.387202
1.71616e-06
0.387202
1.78448e-06
0.387201
1.91514e-06
0.387201
1.96967e-06
0.3872
1.92564e-06
0.3872
1.92874e-06
0.387199
2.08478e-06
0.387198
2.2755e-06
0.387197
2.2788e-06
0.387196
2.05191e-06
0.387195
1.79454e-06
0.387195
1.70873e-06
0.387194
1.77441e-06
0.387194
1.8109e-06
0.387194
1.7092e-06
0.387193
1.52863e-06
0.387193
1.41667e-06
0.387193
1.44554e-06
0.387193
1.59031e-06
0.387192
1.77414e-06
0.387191
1.92589e-06
0.38719
2.01735e-06
0.387188
2.07032e-06
0.387186
2.1262e-06
0.387184
2.21342e-06
0.387181
2.29618e-06
0.387178
2.3096e-06
0.387175
2.22364e-06
0.387172
2.07626e-06
0.387169
1.93216e-06
0.387167
1.80396e-06
0.387165
1.62649e-06
0.387164
1.33352e-06
0.387163
9.59599e-07
0.387163
6.21834e-07
0.387163
4.07522e-07
0.387164
2.3773e-07
0.387165
-2.06945e-08
0.387167
-4.79803e-07
0.38717
-1.06247e-06
0.387173
-1.60808e-06
0.387176
-1.99429e-06
0.38718
-2.18851e-06
0.387183
-2.22019e-06
0.387187
-2.15546e-06
0.38719
-2.0823e-06
0.387194
-2.07349e-06
0.387197
-2.12893e-06
0.387199
-2.15683e-06
0.387202
-2.03348e-06
0.387204
-1.69733e-06
0.387206
-1.2366e-06
0.387208
-8.57372e-07
0.387209
-6.95929e-07
0.38721
-7.2429e-07
0.38721
-7.80024e-07
0.387211
-7.00278e-07
0.387212
-4.54148e-07
0.387213
-1.61507e-07
0.387213
1.40226e-08
0.387213
-2.9205e-09
0.387214
-1.52961e-07
0.387215
-3.10602e-07
0.387216
-3.98437e-07
0.387216
-4.38606e-07
0.387217
-5.08526e-07
0.387217
-6.44852e-07
0.387218
-8.05123e-07
0.387218
-9.16461e-07
0.387219
-9.46313e-07
0.387219
-9.16546e-07
0.387219
-8.56279e-07
0.387219
-7.61824e-07
0.387219
-6.16008e-07
0.387219
-4.38832e-07
0.387219
-3.04333e-07
0.387219
-2.97247e-07
0.387219
-4.46181e-07
0.387219
-6.9231e-07
0.387219
-9.17411e-07
0.387219
-1.00984e-06
0.387219
-9.32332e-07
0.38722
-7.43116e-07
0.38722
-5.51255e-07
0.38722
-4.37601e-07
0.38722
-4.11021e-07
0.38722
-4.31101e-07
0.38722
-4.77706e-07
0.387221
-5.65581e-07
0.387221
-6.99152e-07
0.387221
-8.3154e-07
0.387221
-8.8243e-07
0.387221
-8.11921e-07
0.387222
-6.69383e-07
0.387222
-5.54735e-07
0.387222
-5.29192e-07
0.387222
-5.69885e-07
0.387222
-6.13849e-07
0.387222
-6.29747e-07
0.387222
-6.31158e-07
0.387222
-6.31736e-07
0.387222
-6.10556e-07
0.387222
-5.29629e-07
0.387222
-3.76757e-07
0.387222
-1.75142e-07
0.387222
4.55769e-08
0.387222
2.52861e-07
0.387222
4.31592e-07
0.387222
5.54241e-07
0.387222
6.0935e-07
0.387221
6.25537e-07
0.387221
6.63582e-07
0.387221
7.73941e-07
0.387221
9.61363e-07
0.38722
1.19778e-06
0.38722
1.46186e-06
0.387219
1.75479e-06
0.387219
2.07321e-06
0.387218
2.37871e-06
0.387218
2.60922e-06
0.387217
2.7257e-06
0.387216
2.74423e-06
0.387215
2.72191e-06
0.387215
2.71743e-06
0.387214
2.7676e-06
0.387213
2.88997e-06
0.387212
3.08868e-06
0.387211
3.34934e-06
0.38721
3.63425e-06
0.387209
3.89412e-06
0.387208
4.08913e-06
0.387207
4.19896e-06
0.387206
4.21792e-06
0.387206
4.15216e-06
0.387205
4.0253e-06
0.387204
3.87834e-06
0.387203
3.75498e-06
0.387202
3.681e-06
0.387201
3.6567e-06
0.3872
3.6679e-06
0.387199
3.70007e-06
0.387198
3.7367e-06
0.387198
3.74608e-06
0.387197
3.68137e-06
0.387196
3.50615e-06
0.387195
3.22151e-06
0.387194
2.8586e-06
0.387194
2.43944e-06
0.387193
1.95972e-06
0.387193
1.41809e-06
0.387193
8.42321e-07
0.387194
2.84661e-07
0.387194
-2.24209e-07
0.387195
-6.92555e-07
0.387195
-1.15519e-06
0.387196
-1.64142e-06
0.387196
-2.14957e-06
0.387197
-2.65552e-06
0.387198
-3.14247e-06
0.387198
-3.62023e-06
0.387199
-4.10593e-06
0.3872
-4.59615e-06
0.387201
-5.06105e-06
0.387202
-5.46344e-06
0.387203
-5.78639e-06
0.387204
-6.03767e-06
0.387206
-6.23261e-06
0.387207
-6.37777e-06
0.387209
-6.46062e-06
0.387211
-6.46998e-06
0.387212
-6.38844e-06
0.387214
-6.31213e-06
-5.96642e-06
0.387187
7.94055e-08
0.387186
2.89132e-07
0.387186
5.93178e-07
0.387187
6.79564e-07
0.387189
1.0814e-06
0.387189
2.02109e-06
0.387188
1.89296e-06
0.387189
1.44827e-06
0.38719
1.13979e-06
0.387191
9.07074e-07
0.387192
1.0969e-06
0.387192
1.34602e-06
0.387192
1.36585e-06
0.387192
1.39794e-06
0.387193
1.40641e-06
0.387193
1.97684e-06
0.387192
2.57056e-06
0.387191
2.38506e-06
0.38719
1.94048e-06
0.38719
1.94714e-06
0.387189
2.02597e-06
0.387189
1.77678e-06
0.38719
1.57354e-06
0.387191
1.44065e-06
0.387191
1.38023e-06
0.387192
1.79845e-06
0.387192
2.28048e-06
0.387192
2.285e-06
0.387191
2.11086e-06
0.387191
2.05585e-06
0.387191
2.00165e-06
0.387191
1.82377e-06
0.387191
1.5631e-06
0.387191
1.21062e-06
0.387192
8.32431e-07
0.387193
7.16642e-07
0.387194
9.49177e-07
0.387195
1.21048e-06
0.387196
1.34662e-06
0.387196
1.51692e-06
0.387197
1.70761e-06
0.387197
1.81503e-06
0.387197
1.91004e-06
0.387197
2.00591e-06
0.387197
1.88987e-06
0.387198
1.48155e-06
0.387198
1.07058e-06
0.3872
8.82384e-07
0.387201
8.06272e-07
0.387203
7.84842e-07
0.387204
9.97003e-07
0.387205
1.51831e-06
0.387205
2.0021e-06
0.387204
2.15357e-06
0.387204
2.14095e-06
0.387203
2.23967e-06
0.387203
2.33317e-06
0.387202
2.1631e-06
0.387202
1.84913e-06
0.387202
1.76823e-06
0.387203
1.97019e-06
0.387203
2.06845e-06
0.387203
1.83247e-06
0.387204
1.48062e-06
0.387205
1.30611e-06
0.387205
1.32309e-06
0.387206
1.34591e-06
0.387206
1.24527e-06
0.387207
1.02031e-06
0.387208
7.39865e-07
0.387209
5.0111e-07
0.387211
3.94884e-07
0.387212
4.39607e-07
0.387213
5.80478e-07
0.387214
7.71815e-07
0.387215
9.99719e-07
0.387215
1.22754e-06
0.387216
1.39556e-06
0.387216
1.48914e-06
0.387216
1.54542e-06
0.387217
1.57743e-06
0.387217
1.54839e-06
0.387217
1.44397e-06
0.387218
1.30701e-06
0.387219
1.16615e-06
0.387221
9.82082e-07
0.387222
7.20866e-07
0.387223
4.4903e-07
0.387225
2.86122e-07
0.387226
2.5426e-07
0.387228
2.36514e-07
0.387229
1.22341e-07
0.387231
-1.06661e-07
0.387233
-2.95684e-07
0.387235
-3.87254e-07
0.387237
-3.9598e-07
0.387239
-3.72316e-07
0.387241
-3.37655e-07
0.387243
-2.73823e-07
0.387245
-1.58608e-07
0.387248
-4.61166e-09
0.38725
2.34513e-07
0.387251
5.69951e-07
0.387253
9.98605e-07
0.387253
1.47018e-06
0.387254
1.9059e-06
0.387253
2.24495e-06
0.387253
2.46559e-06
0.387252
2.56692e-06
0.38725
2.55771e-06
0.387249
2.45623e-06
0.387247
2.29263e-06
0.387246
2.0893e-06
0.387244
1.80561e-06
0.387243
1.36334e-06
0.387241
7.28328e-07
0.38724
1.87847e-08
0.387239
-5.75797e-07
0.387238
-9.17652e-07
0.387237
-1.01792e-06
0.387236
-9.99962e-07
0.387235
-9.84854e-07
0.387234
-1.00301e-06
0.387233
-1.00253e-06
0.387231
-9.18915e-07
0.38723
-7.25781e-07
0.387228
-4.4466e-07
0.387227
-1.11395e-07
0.387225
2.18478e-07
0.387224
4.40431e-07
0.387223
5.26424e-07
0.387222
4.82949e-07
0.38722
3.80198e-07
0.387219
3.23696e-07
0.387218
3.80797e-07
0.387218
5.24373e-07
0.387217
6.44267e-07
0.387217
6.28165e-07
0.387216
4.5094e-07
0.387215
1.96235e-07
0.387215
-1.35075e-08
0.387215
-1.10056e-07
0.387214
-1.40485e-07
0.387214
-2.11298e-07
0.387213
-3.85724e-07
0.387213
-6.24684e-07
0.387213
-8.2478e-07
0.387213
-9.08161e-07
0.387213
-8.75123e-07
0.387213
-7.8494e-07
0.387213
-7.04619e-07
0.387213
-6.77262e-07
0.387214
-7.21594e-07
0.387214
-8.40166e-07
0.387215
-1.01835e-06
0.387216
-1.21892e-06
0.387216
-1.38309e-06
0.387216
-1.44446e-06
0.387217
-1.36086e-06
0.387217
-1.15083e-06
0.387218
-9.01484e-07
0.387218
-7.2605e-07
0.387218
-6.92796e-07
0.387219
-7.82598e-07
0.387219
-9.15329e-07
0.387219
-1.01992e-06
0.38722
-1.07967e-06
0.38722
-1.11035e-06
0.38722
-1.11002e-06
0.387221
-1.04858e-06
0.387221
-9.12973e-07
0.387221
-7.48306e-07
0.387221
-6.35605e-07
0.387221
-6.21957e-07
0.387221
-6.81514e-07
0.387221
-7.4755e-07
0.387221
-7.70562e-07
0.387222
-7.40029e-07
0.387222
-6.60186e-07
0.387222
-5.25947e-07
0.387222
-3.32636e-07
0.387221
-9.88003e-08
0.387221
1.43651e-07
0.387221
3.5624e-07
0.387221
5.30062e-07
0.387221
6.63028e-07
0.387221
7.52684e-07
0.387221
8.07881e-07
0.387221
8.67897e-07
0.38722
9.94012e-07
0.38722
1.22878e-06
0.38722
1.56295e-06
0.387219
1.94532e-06
0.387219
2.32363e-06
0.387218
2.67084e-06
0.387217
2.97439e-06
0.387217
3.21405e-06
0.387216
3.36483e-06
0.387216
3.42455e-06
0.387215
3.43084e-06
0.387214
3.44506e-06
0.387213
3.51951e-06
0.387213
3.67834e-06
0.387212
3.9194e-06
0.387211
4.22034e-06
0.38721
4.53933e-06
0.387209
4.82057e-06
0.387208
5.01338e-06
0.387207
5.09316e-06
0.387206
5.06618e-06
0.387206
4.95846e-06
0.387205
4.80442e-06
0.387204
4.64311e-06
0.387203
4.51419e-06
0.387202
4.44566e-06
0.387202
4.44055e-06
0.387201
4.47807e-06
0.3872
4.5303e-06
0.387199
4.57465e-06
0.387198
4.58792e-06
0.387198
4.52724e-06
0.387197
4.33522e-06
0.387196
3.97555e-06
0.387195
3.45455e-06
0.387195
2.81866e-06
0.387195
2.12764e-06
0.387195
1.42235e-06
0.387195
7.21572e-07
0.387195
4.64348e-08
0.387195
-5.72511e-07
0.387196
-1.11606e-06
0.387196
-1.60097e-06
0.387197
-2.07323e-06
0.387197
-2.57572e-06
0.387198
-3.12144e-06
0.387198
-3.69169e-06
0.387199
-4.25951e-06
0.3872
-4.81278e-06
0.3872
-5.35609e-06
0.387201
-5.89718e-06
0.387202
-6.42042e-06
0.387203
-6.89071e-06
0.387204
-7.28414e-06
0.387206
-7.59455e-06
0.387207
-7.82252e-06
0.387209
-7.95538e-06
0.38721
-7.9858e-06
0.387212
-7.89283e-06
0.387213
-7.79766e-06
-7.37936e-06
0.387189
8.40539e-07
0.387188
1.35508e-06
0.387188
1.0817e-06
0.387188
8.24024e-07
0.387188
9.90453e-07
0.387188
1.3059e-06
0.387189
1.68421e-06
0.387189
1.16167e-06
0.387189
1.08632e-06
0.387188
1.46838e-06
0.387188
1.79719e-06
0.387187
2.00148e-06
0.387187
1.90448e-06
0.387186
1.90547e-06
0.387186
1.78459e-06
0.387186
1.38432e-06
0.387188
1.12678e-06
0.387189
9.75352e-07
0.38719
1.03933e-06
0.387191
1.19243e-06
0.387192
1.01875e-06
0.387193
1.04092e-06
0.387193
1.46852e-06
0.387192
1.7334e-06
0.387192
1.71714e-06
0.387192
1.54695e-06
0.387193
1.55549e-06
0.387193
1.86957e-06
0.387194
1.96186e-06
0.387194
1.69338e-06
0.387194
1.5936e-06
0.387194
1.78698e-06
0.387194
1.96443e-06
0.387193
1.99307e-06
0.387192
1.92155e-06
0.387191
1.84769e-06
0.38719
1.80954e-06
0.38719
1.69569e-06
0.387189
1.47538e-06
0.38719
1.2495e-06
0.38719
1.00137e-06
0.387192
7.19121e-07
0.387193
5.98815e-07
0.387194
8.87067e-07
0.387194
1.40953e-06
0.387194
1.79008e-06
0.387193
1.99235e-06
0.387192
2.10728e-06
0.387191
2.04062e-06
0.38719
1.70512e-06
0.387189
1.35121e-06
0.38719
1.2525e-06
0.387191
1.23801e-06
0.387192
9.50667e-07
0.387193
5.01406e-07
0.387195
3.48217e-07
0.387197
5.83242e-07
0.387198
7.86635e-07
0.3872
6.66202e-07
0.387201
5.20557e-07
0.387202
7.28281e-07
0.387203
1.10782e-06
0.387204
1.22161e-06
0.387204
1.05e-06
0.387204
1.01426e-06
0.387204
1.34609e-06
0.387204
1.81222e-06
0.387203
2.06349e-06
0.387202
2.02491e-06
0.387201
1.88618e-06
0.3872
1.82513e-06
0.387198
1.84175e-06
0.387197
1.81495e-06
0.387196
1.65535e-06
0.387195
1.41186e-06
0.387195
1.21345e-06
0.387195
1.10623e-06
0.387195
1.01206e-06
0.387196
8.72673e-07
0.387197
7.71663e-07
0.387197
8.38623e-07
0.387198
1.05797e-06
0.387198
1.26236e-06
0.387198
1.32506e-06
0.387198
1.29138e-06
0.387198
1.2907e-06
0.387197
1.37171e-06
0.387196
1.47571e-06
0.387195
1.53917e-06
0.387193
1.55311e-06
0.387192
1.52622e-06
0.387191
1.45318e-06
0.387189
1.33245e-06
0.387188
1.2093e-06
0.387186
1.11772e-06
0.387185
1.06227e-06
0.387184
1.03108e-06
0.387182
1.02041e-06
0.387181
1.02888e-06
0.38718
1.03283e-06
0.387179
9.89036e-07
0.387178
8.91458e-07
0.387178
7.79769e-07
0.387178
7.17405e-07
0.387179
7.17697e-07
0.38718
7.02507e-07
0.387182
5.49064e-07
0.387184
2.17371e-07
0.387187
-2.09505e-07
0.38719
-5.81429e-07
0.387193
-8.05765e-07
0.387196
-9.09321e-07
0.387199
-9.88538e-07
0.387202
-1.13919e-06
0.387205
-1.41151e-06
0.387208
-1.78689e-06
0.38721
-2.16349e-06
0.387212
-2.39062e-06
0.387213
-2.36667e-06
0.387214
-2.14294e-06
0.387215
-1.89489e-06
0.387216
-1.77655e-06
0.387217
-1.80037e-06
0.387218
-1.83886e-06
0.387218
-1.73573e-06
0.387219
-1.42877e-06
0.38722
-9.89469e-07
0.38722
-5.58392e-07
0.387221
-2.36213e-07
0.387221