/*--------------------------------*- C++ -*----------------------------------*\
| =========                 |                                                 |
| \\      /  F ield         | OpenFOAM: The Open Source CFD Toolbox           |
|  \\    /   O peration     | Version:  2406                                  |
|   \\  /    A nd           | Website:  www.openfoam.com                      |
|    \\/     M anipulation  |                                                 |
\*---------------------------------------------------------------------------*/
FoamFile
{
    version     2.0;
    format      ascii;
    arch        "LSB;label=32;scalar=64";
    class       volVectorField;
    location    "0.35";
    object      U;
}
// * * * * * * * * * * * * * * * * * * * * * * * * * * * * * * * * * * * * * //

dimensions      [0 1 -1 0 0 0 0];

internalField   nonuniform List<vector> 
6250
(
(38.2217 3.69667e-05 0)
(64.6695 0.000351946 0)
(55.4988 0.000747663 0)
(45.9503 0.000778362 0)
(45.3873 0.000691462 0)
(47.999 0.000731995 0)
(49.1343 0.000863479 0)
(48.7906 0.000833921 0)
(48.3253 0.000830163 0)
(48.2494 0.000845358 0)
(48.3575 0.000824501 0)
(48.4204 0.000765711 0)
(48.4116 0.000715437 0)
(48.3891 0.000680871 0)
(48.3828 0.00063485 0)
(48.3866 0.000596144 0)
(48.3895 0.000614496 0)
(48.3889 0.000671891 0)
(48.3874 0.000726915 0)
(48.3865 0.000802617 0)
(48.386 0.000923557 0)
(48.3852 0.00104417 0)
(48.3846 0.00114485 0)
(48.3836 0.00121327 0)
(48.3827 0.00118363 0)
(48.382 0.00105767 0)
(48.3814 0.000897881 0)
(48.3807 0.000738567 0)
(48.38 0.000574934 0)
(48.3796 0.000463638 0)
(48.3791 0.000521746 0)
(48.3784 0.000783749 0)
(48.3775 0.00112201 0)
(48.3766 0.00136943 0)
(48.3758 0.00146209 0)
(48.375 0.00142666 0)
(48.3742 0.00130198 0)
(48.3736 0.00112391 0)
(48.373 0.000940711 0)
(48.3723 0.000817163 0)
(48.3716 0.000807759 0)
(48.3708 0.00090502 0)
(48.3699 0.00104018 0)
(48.3691 0.00113952 0)
(48.3683 0.00116199 0)
(48.3676 0.001102 0)
(48.367 0.000993443 0)
(48.3665 0.000898913 0)
(48.366 0.000854802 0)
(48.3654 0.000833707 0)
(48.3648 0.000787214 0)
(48.3643 0.000705441 0)
(48.3638 0.000605075 0)
(48.3633 0.000486223 0)
(48.3629 0.000349477 0)
(48.3627 0.000236996 0)
(48.3626 0.000198027 0)
(48.3622 0.000224308 0)
(48.3619 0.000256777 0)
(48.3616 0.000254904 0)
(48.3613 0.000218394 0)
(48.3611 0.000141735 0)
(48.3609 5.75029e-06 0)
(48.3608 -0.000156658 0)
(48.3609 -0.000250966 0)
(48.3608 -0.000225317 0)
(48.3607 -0.000125769 0)
(48.3605 -4.4342e-05 0)
(48.3603 -3.07592e-05 0)
(48.3603 -6.18481e-05 0)
(48.3602 -8.92372e-05 0)
(48.3602 -9.95553e-05 0)
(48.3601 -0.000107332 0)
(48.36 -0.000120408 0)
(48.36 -0.000132752 0)
(48.3599 -0.000136682 0)
(48.3599 -0.000137494 0)
(48.3598 -0.000150729 0)
(48.3598 -0.000185291 0)
(48.3598 -0.000227021 0)
(48.3598 -0.000257619 0)
(48.3597 -0.000277947 0)
(48.3597 -0.000304157 0)
(48.3597 -0.000341835 0)
(48.3597 -0.0003777 0)
(48.3596 -0.000395983 0)
(48.3596 -0.000402128 0)
(48.3595 -0.000413591 0)
(48.3595 -0.000432535 0)
(48.3595 -0.000442596 0)
(48.3596 -0.000433439 0)
(48.3596 -0.0004172 0)
(48.3596 -0.000416751 0)
(48.3596 -0.000441168 0)
(48.3596 -0.000481574 0)
(48.3597 -0.000525706 0)
(48.3598 -0.000568666 0)
(48.3599 -0.000610075 0)
(48.36 -0.000648044 0)
(48.3601 -0.000679461 0)
(48.3602 -0.000701643 0)
(48.3603 -0.000711377 0)
(48.3604 -0.000704331 0)
(48.3605 -0.000678711 0)
(48.3606 -0.00063867 0)
(48.3606 -0.000590561 0)
(48.3607 -0.00053351 0)
(48.3608 -0.000456095 0)
(48.3609 -0.000346078 0)
(48.3609 -0.000206615 0)
(48.361 -6.1605e-05 0)
(48.361 6.27097e-05 0)
(48.3611 0.000157049 0)
(48.3612 0.000232679 0)
(48.3613 0.000304219 0)
(48.3615 0.000371772 0)
(48.3616 0.000420658 0)
(48.3617 0.000436102 0)
(48.3619 0.000414495 0)
(48.3621 0.000363336 0)
(48.3623 0.000295536 0)
(48.3625 0.000225811 0)
(48.3628 0.000167257 0)
(48.363 0.000125285 0)
(48.3632 9.40889e-05 0)
(48.3634 6.26268e-05 0)
(48.3636 2.72519e-05 0)
(48.3638 -2.00475e-06 0)
(48.3639 -1.04002e-05 0)
(48.364 5.08619e-06 0)
(48.3641 3.01562e-05 0)
(48.3642 4.49157e-05 0)
(48.3642 4.17101e-05 0)
(48.3643 3.06385e-05 0)
(48.3643 2.90388e-05 0)
(48.3644 4.43947e-05 0)
(48.3644 6.50314e-05 0)
(48.3644 7.10107e-05 0)
(48.3644 5.26565e-05 0)
(48.3644 1.87646e-05 0)
(48.3644 -1.00154e-05 0)
(48.3645 -1.77269e-05 0)
(48.3645 -6.07765e-06 0)
(48.3645 7.93645e-06 0)
(48.3645 7.83791e-06 0)
(48.3645 -8.80659e-06 0)
(48.3645 -3.05942e-05 0)
(48.3645 -4.65741e-05 0)
(48.3646 -5.7218e-05 0)
(48.3646 -7.01486e-05 0)
(48.3646 -8.79014e-05 0)
(48.3647 -0.000102543 0)
(48.3647 -0.000102733 0)
(48.3647 -8.75036e-05 0)
(48.3647 -6.98221e-05 0)
(48.3647 -6.47005e-05 0)
(48.3647 -7.61246e-05 0)
(48.3648 -9.4837e-05 0)
(48.3648 -0.000105027 0)
(48.3649 -9.40393e-05 0)
(48.3649 -5.70386e-05 0)
(48.3649 -5.28305e-06 0)
(48.3649 4.30983e-05 0)
(48.3648 7.49669e-05 0)
(48.3647 8.86506e-05 0)
(48.3646 9.00838e-05 0)
(48.3645 8.40852e-05 0)
(48.3645 7.28644e-05 0)
(48.3645 6.40671e-05 0)
(48.3644 6.71643e-05 0)
(48.3644 8.85866e-05 0)
(48.3644 0.000124399 0)
(48.3643 0.000157728 0)
(48.3642 0.000170133 0)
(48.364 0.000156593 0)
(48.364 0.000128739 0)
(48.3639 0.000103327 0)
(48.3639 8.86473e-05 0)
(48.3639 8.27785e-05 0)
(48.3639 8.27904e-05 0)
(48.3638 8.75151e-05 0)
(48.3638 9.70939e-05 0)
(48.3638 0.000108506 0)
(48.3637 0.00011431 0)
(48.3636 0.000107587 0)
(48.3636 8.72704e-05 0)
(48.3635 5.89298e-05 0)
(48.3635 3.10273e-05 0)
(48.3635 1.12911e-05 0)
(48.3635 4.91127e-06 0)
(48.3635 1.25635e-05 0)
(48.3635 2.74563e-05 0)
(48.3634 3.94833e-05 0)
(48.3634 4.07402e-05 0)
(48.3633 3.01667e-05 0)
(48.3633 1.25603e-05 0)
(48.3632 -7.07918e-06 0)
(48.3632 -2.74815e-05 0)
(48.3631 -4.87361e-05 0)
(48.3631 -6.81683e-05 0)
(48.3631 -7.96141e-05 0)
(48.3631 -7.8275e-05 0)
(48.3631 -6.62289e-05 0)
(48.3631 -5.1756e-05 0)
(48.3631 -4.41141e-05 0)
(48.363 -4.85201e-05 0)
(48.363 -6.49667e-05 0)
(48.3629 -8.9948e-05 0)
(48.3629 -0.000118118 0)
(48.3629 -0.000142941 0)
(48.3629 -0.000160284 0)
(48.3629 -0.000170305 0)
(48.3629 -0.000174328 0)
(48.363 -0.000173007 0)
(48.363 -0.00016582 0)
(48.363 -0.000152399 0)
(48.363 -0.000135553 0)
(48.363 -0.00011907 0)
(48.363 -0.000105935 0)
(48.363 -9.65419e-05 0)
(48.363 -9.06299e-05 0)
(48.3629 -8.96217e-05 0)
(48.3629 -9.47454e-05 0)
(48.363 -0.00010366 0)
(48.363 -0.000110905 0)
(48.363 -0.000111085 0)
(48.363 -0.000102854 0)
(48.363 -8.97449e-05 0)
(48.363 -7.58163e-05 0)
(48.363 -5.98035e-05 0)
(48.363 -3.72946e-05 0)
(48.363 -7.51074e-06 0)
(48.363 2.48145e-05 0)
(48.363 5.14267e-05 0)
(48.363 6.53226e-05 0)
(48.363 6.67084e-05 0)
(48.3631 6.01714e-05 0)
(48.3631 4.93208e-05 0)
(48.3632 3.48445e-05 0)
(48.3633 1.71814e-05 0)
(48.3634 -1.06284e-06 0)
(48.3636 -1.42965e-05 0)
(48.3638 -1.60731e-05 0)
(48.3639 -4.78173e-06 0)
(48.3641 1.41234e-05 0)
(48.3642 3.28711e-05 0)
(48.3643 4.96868e-05 0)
(48.3644 6.36004e-05 0)
(48.3644 8.56411e-05 0)
(48.3645 0.000103824 0)
(38.2222 7.18725e-05 0)
(64.6695 0.000392633 0)
(55.5011 0.000579806 0)
(45.9538 0.000572461 0)
(45.3916 0.000532213 0)
(48.0037 0.000421709 0)
(49.14 0.000487597 0)
(48.7969 0.000514505 0)
(48.3335 0.000548263 0)
(48.2588 0.00058541 0)
(48.3679 0.000582613 0)
(48.4319 0.000540847 0)
(48.4243 0.000509965 0)
(48.4028 0.000479874 0)
(48.3971 0.000448501 0)
(48.4013 0.00042646 0)
(48.4046 0.000433703 0)
(48.4048 0.000451255 0)
(48.404 0.000417426 0)
(48.4038 0.000339306 0)
(48.4047 0.000281493 0)
(48.4054 0.000264222 0)
(48.4061 0.000274685 0)
(48.4068 0.000344005 0)
(48.4076 0.000394282 0)
(48.408 0.000430195 0)
(48.4084 0.000522998 0)
(48.4087 0.000647897 0)
(48.4086 0.000706539 0)
(48.4085 0.000661843 0)
(48.4084 0.000575138 0)
(48.4088 0.000507782 0)
(48.4095 0.000445914 0)
(48.4102 0.000350346 0)
(48.4109 0.000236491 0)
(48.4115 0.00016114 0)
(48.4121 0.000163428 0)
(48.4126 0.000247349 0)
(48.4129 0.000377069 0)
(48.4132 0.000497134 0)
(48.4136 0.000579504 0)
(48.4141 0.00061903 0)
(48.4146 0.000608355 0)
(48.4151 0.000554928 0)
(48.4156 0.000478622 0)
(48.4159 0.000377716 0)
(48.4162 0.000256902 0)
(48.4165 0.000172461 0)
(48.4169 0.000183988 0)
(48.4173 0.000273317 0)
(48.4177 0.000365771 0)
(48.418 0.00042371 0)
(48.4182 0.000456409 0)
(48.4182 0.000455094 0)
(48.4182 0.000398479 0)
(48.418 0.000320679 0)
(48.418 0.000293871 0)
(48.418 0.000330871 0)
(48.418 0.000364376 0)
(48.4179 0.000349575 0)
(48.4179 0.000327593 0)
(48.4179 0.000344234 0)
(48.4177 0.000367156 0)
(48.4173 0.000349031 0)
(48.4169 0.000315048 0)
(48.4166 0.000320679 0)
(48.4165 0.000365118 0)
(48.4164 0.000386326 0)
(48.4162 0.000343263 0)
(48.4159 0.000266713 0)
(48.4157 0.000215409 0)
(48.4155 0.000206848 0)
(48.4153 0.000219039 0)
(48.4151 0.000232148 0)
(48.4148 0.000243741 0)
(48.4146 0.000257516 0)
(48.4145 0.000270112 0)
(48.4143 0.000273148 0)
(48.414 0.000265554 0)
(48.4137 0.00026372 0)
(48.4134 0.000285009 0)
(48.4132 0.000326227 0)
(48.413 0.000365787 0)
(48.4127 0.000391114 0)
(48.4124 0.00041398 0)
(48.4121 0.000451969 0)
(48.4119 0.00049443 0)
(48.4116 0.000507215 0)
(48.4114 0.000474868 0)
(48.4111 0.000423223 0)
(48.4107 0.000391029 0)
(48.4105 0.000387529 0)
(48.4102 0.000388881 0)
(48.4099 0.000374587 0)
(48.4097 0.000352501 0)
(48.4094 0.000346437 0)
(48.4091 0.00036856 0)
(48.4088 0.000410125 0)
(48.4086 0.000453924 0)
(48.4083 0.000488273 0)
(48.4081 0.000510361 0)
(48.4079 0.000522439 0)
(48.4077 0.000527049 0)
(48.4075 0.000523446 0)
(48.4073 0.000505643 0)
(48.4071 0.000464453 0)
(48.4069 0.000394337 0)
(48.4066 0.000299428 0)
(48.4063 0.000191581 0)
(48.4061 7.96837e-05 0)
(48.4059 -3.87464e-05 0)
(48.4057 -0.00016983 0)
(48.4055 -0.000310919 0)
(48.4054 -0.000445367 0)
(48.4052 -0.000553984 0)
(48.405 -0.000631347 0)
(48.4049 -0.000687924 0)
(48.4049 -0.000734733 0)
(48.4048 -0.000769428 0)
(48.4047 -0.000781006 0)
(48.4046 -0.000764074 0)
(48.4045 -0.000723456 0)
(48.4043 -0.000666353 0)
(48.4041 -0.000596119 0)
(48.404 -0.000516371 0)
(48.4038 -0.000436784 0)
(48.4037 -0.000368664 0)
(48.4036 -0.00031544 0)
(48.4034 -0.000270001 0)
(48.4033 -0.000223162 0)
(48.4032 -0.000175702 0)
(48.4032 -0.000139359 0)
(48.4032 -0.000124803 0)
(48.4031 -0.000128358 0)
(48.4031 -0.000132042 0)
(48.403 -0.000117575 0)
(48.403 -8.40735e-05 0)
(48.403 -4.98914e-05 0)
(48.403 -3.67328e-05 0)
(48.4029 -5.06694e-05 0)
(48.4028 -7.49184e-05 0)
(48.4028 -8.3138e-05 0)
(48.4028 -6.10302e-05 0)
(48.4028 -1.9231e-05 0)
(48.4028 1.61569e-05 0)
(48.4029 2.59669e-05 0)
(48.4029 1.32805e-05 0)
(48.4029 -3.03431e-06 0)
(48.403 -7.15914e-06 0)
(48.4031 2.32365e-06 0)
(48.4031 1.69141e-05 0)
(48.4031 3.02255e-05 0)
(48.4032 4.32194e-05 0)
(48.4032 5.71655e-05 0)
(48.4032 6.66242e-05 0)
(48.4033 6.28885e-05 0)
(48.4033 4.25348e-05 0)
(48.4033 1.21566e-05 0)
(48.4033 -1.33566e-05 0)
(48.4033 -1.8571e-05 0)
(48.4033 3.63794e-06 0)
(48.4034 4.14796e-05 0)
(48.4035 7.28864e-05 0)
(48.4035 8.22069e-05 0)
(48.4036 6.87669e-05 0)
(48.4037 4.48888e-05 0)
(48.4038 2.22212e-05 0)
(48.4039 4.91323e-06 0)
(48.4039 -7.1782e-06 0)
(48.404 -1.40257e-05 0)
(48.4041 -1.11264e-05 0)
(48.4042 5.42986e-06 0)
(48.4043 2.86082e-05 0)
(48.4045 4.19685e-05 0)
(48.4046 3.35059e-05 0)
(48.4047 6.99566e-06 0)
(48.4048 -2.19729e-05 0)
(48.4049 -3.99503e-05 0)
(48.4049 -4.42571e-05 0)
(48.405 -3.89621e-05 0)
(48.4051 -2.86651e-05 0)
(48.4051 -1.46806e-05 0)
(48.4052 1.70746e-06 0)
(48.4053 1.59526e-05 0)
(48.4054 2.36902e-05 0)
(48.4054 2.41285e-05 0)
(48.4054 2.02795e-05 0)
(48.4054 1.49471e-05 0)
(48.4053 9.26592e-06 0)
(48.4053 5.5494e-06 0)
(48.4053 8.95476e-06 0)
(48.4052 2.2852e-05 0)
(48.4052 4.48377e-05 0)
(48.4052 6.67857e-05 0)
(48.4052 8.13546e-05 0)
(48.4051 8.79639e-05 0)
(48.405 9.13956e-05 0)
(48.4049 9.51747e-05 0)
(48.4047 9.81983e-05 0)
(48.4046 9.75868e-05 0)
(48.4044 9.39136e-05 0)
(48.4042 9.18662e-05 0)
(48.4041 9.57473e-05 0)
(48.4039 0.000105941 0)
(48.4038 0.000119424 0)
(48.4037 0.000132696 0)
(48.4035 0.000143333 0)
(48.4033 0.000149604 0)
(48.403 0.000150624 0)
(48.4028 0.000147756 0)
(48.4025 0.000143325 0)
(48.4022 0.000138588 0)
(48.402 0.000133971 0)
(48.4017 0.000129685 0)
(48.4014 0.000127065 0)
(48.4012 0.000128236 0)
(48.401 0.000132742 0)
(48.4007 0.000137141 0)
(48.4005 0.000136785 0)
(48.4003 0.000130241 0)
(48.4001 0.000120346 0)
(48.3999 0.000110473 0)
(48.3998 0.000101246 0)
(48.3996 9.13257e-05 0)
(48.3994 8.08378e-05 0)
(48.3992 7.36912e-05 0)
(48.3991 7.38035e-05 0)
(48.3989 7.86748e-05 0)
(48.3988 7.92182e-05 0)
(48.3987 6.75268e-05 0)
(48.3986 4.35333e-05 0)
(48.3986 1.3463e-05 0)
(48.3987 -1.68166e-05 0)
(48.3988 -4.83403e-05 0)
(48.3989 -8.5561e-05 0)
(48.3991 -0.000128031 0)
(48.3993 -0.000169778 0)
(48.3995 -0.000205526 0)
(48.3998 -0.000234631 0)
(48.4 -0.000259076 0)
(48.4003 -0.00028015 0)
(48.4005 -0.000294924 0)
(48.4007 -0.000298127 0)
(48.401 -0.000288314 0)
(48.4012 -0.000270409 0)
(48.4015 -0.00025282 0)
(48.4018 -0.000240294 0)
(48.4021 -0.000232986 0)
(48.4023 -0.000224552 0)
(48.4028 -0.0002178 0)
(38.222 9.94729e-05 0)
(64.67 0.000208411 0)
(55.5002 0.000137348 0)
(45.9526 9.38403e-05 0)
(45.3902 0.000114017 0)
(48.0022 -1.74779e-05 0)
(49.1384 -2.92252e-05 0)
(48.7951 6.51446e-05 0)
(48.3307 8.78837e-05 0)
(48.2557 6.29627e-05 0)
(48.3645 4.39055e-05 0)
(48.4279 8.88064e-05 0)
(48.4197 0.000194477 0)
(48.3978 0.000245177 0)
(48.3921 0.000255169 0)
(48.3965 0.000257315 0)
(48.3998 0.00023777 0)
(48.4 0.000244568 0)
(48.3992 0.000270673 0)
(48.3986 0.000260464 0)
(48.3985 0.000206628 0)
(48.3984 0.000158467 0)
(48.3982 8.7131e-05 0)
(48.398 5.24584e-05 0)
(48.3978 6.62326e-05 0)
(48.3977 6.74226e-05 0)
(48.3978 7.7026e-05 0)
(48.3982 0.000151696 0)
(48.3986 0.000281901 0)
(48.399 0.000386912 0)
(48.3993 0.000382729 0)
(48.3994 0.000271164 0)
(48.3994 0.000147075 0)
(48.3992 8.21271e-05 0)
(48.3989 7.47819e-05 0)
(48.3986 9.06372e-05 0)
(48.3983 0.00011086 0)
(48.3982 0.000149602 0)
(48.3981 0.00020742 0)
(48.3981 0.000235614 0)
(48.3982 0.000198715 0)
(48.3983 0.000126661 0)
(48.3984 6.90107e-05 0)
(48.3985 5.40865e-05 0)
(48.3987 9.1996e-05 0)
(48.3988 0.000161159 0)
(48.3988 0.000206564 0)
(48.3987 0.000191085 0)
(48.3985 0.000137914 0)
(48.3983 9.48255e-05 0)
(48.3982 7.58753e-05 0)
(48.3983 7.18011e-05 0)
(48.3984 9.14055e-05 0)
(48.3987 0.000148841 0)
(48.399 0.000219677 0)
(48.3991 0.000260966 0)
(48.3992 0.000271391 0)
(48.3994 0.00027959 0)
(48.3996 0.000280799 0)
(48.3997 0.000240889 0)
(48.3998 0.000174197 0)
(48.4001 0.000157902 0)
(48.4004 0.000233282 0)
(48.4006 0.00033425 0)
(48.4008 0.000366162 0)
(48.4009 0.000321011 0)
(48.401 0.000266972 0)
(48.4012 0.00025652 0)
(48.4013 0.000282888 0)
(48.4013 0.000310133 0)
(48.4013 0.000314451 0)
(48.4013 0.000298291 0)
(48.4013 0.000277365 0)
(48.4012 0.000264679 0)
(48.4012 0.000261556 0)
(48.4012 0.00025897 0)
(48.4012 0.00025276 0)
(48.4013 0.00025095 0)
(48.4014 0.000260063 0)
(48.4015 0.000268814 0)
(48.4016 0.00026071 0)
(48.4017 0.000234033 0)
(48.4018 0.0002006 0)
(48.402 0.000169295 0)
(48.4021 0.000142365 0)
(48.4022 0.00012261 0)
(48.4023 0.000115144 0)
(48.4025 0.000117103 0)
(48.4027 0.000117074 0)
(48.4028 0.000110936 0)
(48.4029 0.00010838 0)
(48.403 0.00011574 0)
(48.4031 0.000120731 0)
(48.4032 0.000103413 0)
(48.4032 5.98313e-05 0)
(48.4033 5.98319e-06 0)
(48.4033 -4.29139e-05 0)
(48.4033 -8.87658e-05 0)
(48.4034 -0.000142317 0)
(48.4035 -0.000204468 0)
(48.4036 -0.000262379 0)
(48.4037 -0.000301447 0)
(48.4038 -0.000314908 0)
(48.404 -0.000300527 0)
(48.4042 -0.00025396 0)
(48.4045 -0.000171408 0)
(48.4048 -5.95447e-05 0)
(48.405 6.12828e-05 0)
(48.4052 0.000168442 0)
(48.4054 0.000253584 0)
(48.4056 0.000326181 0)
(48.4057 0.000399273 0)
(48.4057 0.000475813 0)
(48.4057 0.000546228 0)
(48.4056 0.000599192 0)
(48.4054 0.00062862 0)
(48.4052 0.000632479 0)
(48.4049 0.000612665 0)
(48.4047 0.00058068 0)
(48.4044 0.000554366 0)
(48.4041 0.000542879 0)
(48.4038 0.000536129 0)
(48.4036 0.000514121 0)
(48.4033 0.000468559 0)
(48.4031 0.000412317 0)
(48.403 0.000366018 0)
(48.4029 0.000336719 0)
(48.4028 0.000311202 0)
(48.4027 0.000271997 0)
(48.4026 0.00021693 0)
(48.4026 0.000160617 0)
(48.4025 0.000120683 0)
(48.4025 0.000103081 0)
(48.4025 0.000100368 0)
(48.4024 0.000101409 0)
(48.4024 0.000102253 0)
(48.4023 0.000107478 0)
(48.4023 0.00012003 0)
(48.4023 0.000132542 0)
(48.4023 0.000130501 0)
(48.4022 0.000104316 0)
(48.4022 5.88652e-05 0)
(48.4021 1.12779e-05 0)
(48.4021 -2.39412e-05 0)
(48.4022 -4.81056e-05 0)
(48.4022 -7.58352e-05 0)
(48.4022 -0.000118517 0)
(48.4022 -0.000169219 0)
(48.4022 -0.000205832 0)
(48.4022 -0.000210394 0)
(48.4022 -0.000185058 0)
(48.4022 -0.000149715 0)
(48.4022 -0.000125708 0)
(48.4022 -0.000120856 0)
(48.4022 -0.000128143 0)
(48.4022 -0.00013574 0)
(48.4023 -0.000136564 0)
(48.4023 -0.000130133 0)
(48.4024 -0.000118987 0)
(48.4024 -0.000104758 0)
(48.4024 -8.87075e-05 0)
(48.4024 -7.14413e-05 0)
(48.4025 -5.66051e-05 0)
(48.4025 -5.09871e-05 0)
(48.4025 -5.94747e-05 0)
(48.4025 -7.83865e-05 0)
(48.4026 -9.5629e-05 0)
(48.4026 -9.99434e-05 0)
(48.4026 -9.31876e-05 0)
(48.4027 -8.66107e-05 0)
(48.4027 -8.87708e-05 0)
(48.4027 -9.63057e-05 0)
(48.4027 -9.78756e-05 0)
(48.4027 -8.7779e-05 0)
(48.4028 -7.30537e-05 0)
(48.4028 -6.57821e-05 0)
(48.4028 -7.00396e-05 0)
(48.4029 -7.80789e-05 0)
(48.4029 -7.93682e-05 0)
(48.4029 -7.11588e-05 0)
(48.4029 -5.72635e-05 0)
(48.4029 -4.17972e-05 0)
(48.4029 -2.51936e-05 0)
(48.4029 -6.31634e-06 0)
(48.4029 1.35955e-05 0)
(48.4029 3.22887e-05 0)
(48.4028 4.8289e-05 0)
(48.4028 6.09796e-05 0)
(48.4028 6.89389e-05 0)
(48.4028 7.07753e-05 0)
(48.4027 6.90089e-05 0)
(48.4027 7.21367e-05 0)
(48.4026 8.85057e-05 0)
(48.4026 0.000118835 0)
(48.4025 0.000154758 0)
(48.4024 0.000185731 0)
(48.4023 0.00020723 0)
(48.4023 0.000221758 0)
(48.4022 0.000232714 0)
(48.4021 0.000239736 0)
(48.402 0.000240498 0)
(48.4019 0.000236002 0)
(48.4018 0.000232416 0)
(48.4017 0.000236989 0)
(48.4016 0.000253194 0)
(48.4015 0.000279463 0)
(48.4014 0.00031096 0)
(48.4012 0.000341442 0)
(48.4011 0.000364454 0)
(48.4009 0.000375046 0)
(48.4008 0.000372968 0)
(48.4007 0.000363005 0)
(48.4005 0.000350816 0)
(48.4004 0.000339778 0)
(48.4003 0.000330881 0)
(48.4002 0.000324498 0)
(48.4 0.000321552 0)
(48.3999 0.000321154 0)
(48.3998 0.000319734 0)
(48.3997 0.000312846 0)
(48.3995 0.000299098 0)
(48.3994 0.000281353 0)
(48.3993 0.000262979 0)
(48.3992 0.000243947 0)
(48.3991 0.000221924 0)
(48.399 0.000196076 0)
(48.3989 0.000168923 0)
(48.3989 0.000143827 0)
(48.3989 0.000119544 0)
(48.399 8.7736e-05 0)
(48.399 3.97612e-05 0)
(48.3991 -2.48663e-05 0)
(48.3992 -9.76859e-05 0)
(48.3992 -0.000168444 0)
(48.3993 -0.00023202 0)
(48.3994 -0.000289981 0)
(48.3995 -0.000345029 0)
(48.3996 -0.000396644 0)
(48.3998 -0.000440802 0)
(48.3999 -0.00047343 0)
(48.4001 -0.000494654 0)
(48.4003 -0.000508146 0)
(48.4004 -0.000517004 0)
(48.4006 -0.000521603 0)
(48.4008 -0.000520773 0)
(48.401 -0.000515213 0)
(48.4013 -0.000509422 0)
(48.4015 -0.000503013 0)
(48.4017 -0.000505489 0)
(48.402 -0.000489153 0)
(38.2217 2.99235e-06 0)
(64.6699 2.0782e-05 0)
(55.5003 0.000203052 0)
(45.9529 0.000302145 0)
(45.3904 0.000405407 0)
(48.0021 0.000453781 0)
(49.1384 0.000415235 0)
(48.7951 0.000386735 0)
(48.3308 0.000388085 0)
(48.2556 0.000385726 0)
(48.3644 0.000378236 0)
(48.4279 0.000347312 0)
(48.4202 0.000343742 0)
(48.3986 0.000348348 0)
(48.3927 0.000340859 0)
(48.397 0.00034224 0)
(48.4003 0.00030948 0)
(48.4004 0.000290616 0)
(48.3996 0.000326213 0)
(48.3994 0.000376835 0)
(48.3997 0.000406844 0)
(48.4002 0.000446915 0)
(48.4003 0.000478975 0)
(48.4002 0.000477049 0)
(48.4004 0.00049985 0)
(48.4003 0.000486732 0)
(48.4001 0.000368718 0)
(48.4001 0.000217203 0)
(48.4 0.000122032 0)
(48.4 0.000111167 0)
(48.4 0.000162401 0)
(48.4 0.000250844 0)
(48.4002 0.000375606 0)
(48.4004 0.000524571 0)
(48.4005 0.000656034 0)
(48.4007 0.000718982 0)
(48.4009 0.000685073 0)
(48.401 0.000579503 0)
(48.4011 0.000458821 0)
(48.4011 0.000357465 0)
(48.4012 0.000290993 0)
(48.4011 0.000279153 0)
(48.4011 0.000313781 0)
(48.401 0.000346646 0)
(48.4009 0.000358118 0)
(48.401 0.000387501 0)
(48.4011 0.000455652 0)
(48.4011 0.000520695 0)
(48.4012 0.000538152 0)
(48.4012 0.000513821 0)
(48.4012 0.000466971 0)
(48.4011 0.000389485 0)
(48.401 0.000282568 0)
(48.4009 0.00019057 0)
(48.4009 0.000148226 0)
(48.4008 0.000130126 0)
(48.4008 9.88642e-05 0)
(48.4007 7.13701e-05 0)
(48.4007 8.55356e-05 0)
(48.4007 0.000122492 0)
(48.4005 0.000123233 0)
(48.4003 8.08027e-05 0)
(48.4001 5.26794e-05 0)
(48.4 6.95928e-05 0)
(48.3999 9.58674e-05 0)
(48.3999 9.55881e-05 0)
(48.3998 9.15466e-05 0)
(48.3997 0.000131599 0)
(48.3997 0.000220019 0)
(48.3998 0.000311283 0)
(48.3999 0.000361415 0)
(48.4 0.000366094 0)
(48.4001 0.000349529 0)
(48.4002 0.000331589 0)
(48.4002 0.000310567 0)
(48.4003 0.000272917 0)
(48.4003 0.000217126 0)
(48.4003 0.00016308 0)
(48.4003 0.000131966 0)
(48.4002 0.000121666 0)
(48.4002 0.000114416 0)
(48.4001 0.000106121 0)
(48.4 0.000113481 0)
(48.3999 0.00014636 0)
(48.3998 0.00018604 0)
(48.3997 0.000203683 0)
(48.3995 0.000195732 0)
(48.3994 0.000186854 0)
(48.3994 0.000198096 0)
(48.3993 0.0002242 0)
(48.3992 0.0002453 0)
(48.3992 0.000251259 0)
(48.3992 0.000248231 0)
(48.3992 0.000249009 0)
(48.3992 0.000260865 0)
(48.3991 0.000283761 0)
(48.399 0.000311126 0)
(48.3989 0.000331931 0)
(48.3988 0.000336492 0)
(48.3986 0.000322941 0)
(48.3984 0.000296328 0)
(48.3981 0.000260882 0)
(48.3978 0.000212799 0)
(48.3974 0.000145492 0)
(48.397 6.03601e-05 0)
(48.3967 -2.91526e-05 0)
(48.3963 -0.000106587 0)
(48.396 -0.000165928 0)
(48.3957 -0.000214398 0)
(48.3955 -0.000259751 0)
(48.3954 -0.000297232 0)
(48.3953 -0.000312677 0)
(48.3953 -0.000298576 0)
(48.3954 -0.00026482 0)
(48.3955 -0.000232383 0)
(48.3957 -0.000216647 0)
(48.396 -0.000219349 0)
(48.3964 -0.000232638 0)
(48.3968 -0.000245777 0)
(48.3973 -0.000248478 0)
(48.3977 -0.000235234 0)
(48.3981 -0.00021156 0)
(48.3986 -0.000193597 0)
(48.399 -0.00019562 0)
(48.3994 -0.000215123 0)
(48.3998 -0.000231717 0)
(48.4001 -0.00022328 0)
(48.4004 -0.000184606 0)
(48.4007 -0.000133045 0)
(48.4009 -9.55612e-05 0)
(48.401 -8.55379e-05 0)
(48.4012 -9.36007e-05 0)
(48.4013 -9.69998e-05 0)
(48.4014 -8.00118e-05 0)
(48.4015 -4.62332e-05 0)
(48.4015 -1.37467e-05 0)
(48.4016 1.70205e-06 0)
(48.4016 -8.24482e-07 0)
(48.4017 -9.58503e-06 0)
(48.4018 -1.26734e-05 0)
(48.4019 -8.65425e-06 0)
(48.402 -4.84944e-06 0)
(48.4021 -7.82489e-06 0)
(48.4021 -1.54478e-05 0)
(48.4022 -1.9673e-05 0)
(48.4023 -1.60588e-05 0)
(48.4023 -8.56411e-06 0)
(48.4024 -3.72678e-06 0)
(48.4024 -1.67168e-06 0)
(48.4024 4.63406e-06 0)
(48.4024 2.05951e-05 0)
(48.4024 4.13767e-05 0)
(48.4024 5.33318e-05 0)
(48.4024 4.46011e-05 0)
(48.4024 1.4602e-05 0)
(48.4024 -2.52697e-05 0)
(48.4024 -5.86791e-05 0)
(48.4024 -7.373e-05 0)
(48.4024 -6.90608e-05 0)
(48.4024 -5.28887e-05 0)
(48.4024 -3.5799e-05 0)
(48.4025 -2.25462e-05 0)
(48.4025 -1.24795e-05 0)
(48.4025 -6.27759e-06 0)
(48.4025 -7.79577e-06 0)
(48.4026 -2.11418e-05 0)
(48.4026 -4.3006e-05 0)
(48.4026 -6.24446e-05 0)
(48.4026 -6.84122e-05 0)
(48.4027 -5.93355e-05 0)
(48.4027 -4.48543e-05 0)
(48.4027 -3.68808e-05 0)
(48.4027 -3.86825e-05 0)
(48.4027 -4.42931e-05 0)
(48.4027 -4.73508e-05 0)
(48.4027 -4.79769e-05 0)
(48.4028 -5.00909e-05 0)
(48.4028 -5.43351e-05 0)
(48.4028 -5.5994e-05 0)
(48.4028 -4.9766e-05 0)
(48.4028 -3.44664e-05 0)
(48.4028 -1.29358e-05 0)
(48.4028 1.13234e-05 0)
(48.4028 3.54568e-05 0)
(48.4027 5.51691e-05 0)
(48.4027 6.6456e-05 0)
(48.4027 6.89533e-05 0)
(48.4027 6.81149e-05 0)
(48.4027 7.17915e-05 0)
(48.4027 8.40701e-05 0)
(48.4026 0.000103198 0)
(48.4026 0.000125873 0)
(48.4025 0.000151884 0)
(48.4025 0.000183328 0)
(48.4024 0.000219313 0)
(48.4023 0.000253148 0)
(48.4022 0.000276319 0)
(48.4021 0.000285264 0)
(48.4021 0.000283785 0)
(48.402 0.000279449 0)
(48.4019 0.000278582 0)
(48.4018 0.000284495 0)
(48.4017 0.000298577 0)
(48.4016 0.000320908 0)
(48.4015 0.00034948 0)
(48.4014 0.000380022 0)
(48.4012 0.000407619 0)
(48.4011 0.000428493 0)
(48.401 0.000440208 0)
(48.4009 0.000441276 0)
(48.4007 0.000432103 0)
(48.4006 0.000416198 0)
(48.4005 0.00039928 0)
(48.4004 0.000386428 0)
(48.4003 0.00037955 0)
(48.4002 0.00037761 0)
(48.4001 0.000379136 0)
(48.4 0.000383447 0)
(48.3999 0.000389238 0)
(48.3998 0.000392258 0)
(48.3996 0.000386047 0)
(48.3995 0.000366443 0)
(48.3994 0.000335015 0)
(48.3993 0.000297074 0)
(48.3992 0.000255956 0)
(48.3992 0.000210207 0)
(48.3991 0.000157536 0)
(48.3991 0.000100163 0)
(48.3992 4.39014e-05 0)
(48.3992 -7.78787e-06 0)
(48.3993 -5.7422e-05 0)
(48.3994 -0.000110075 0)
(48.3994 -0.000167776 0)
(48.3995 -0.00022756 0)
(48.3996 -0.000285672 0)
(48.3997 -0.000342187 0)
(48.3997 -0.000400509 0)
(48.3998 -0.000461822 0)
(48.3999 -0.000521751 0)
(48.4 -0.000573559 0)
(48.4001 -0.000613286 0)
(48.4003 -0.000641965 0)
(48.4004 -0.000662886 0)
(48.4006 -0.000678231 0)
(48.4008 -0.000688097 0)
(48.401 -0.000691231 0)
(48.4012 -0.000687749 0)
(48.4014 -0.000676252 0)
(48.4016 -0.000666752 0)
(48.4019 -0.000626632 0)
(38.222 -3.14165e-05 0)
(64.6697 -4.53253e-05 0)
(55.5 -1.97994e-05 0)
(45.9525 3.43284e-05 0)
(45.3902 0.000130297 0)
(48.0022 0.000208735 0)
(49.1382 0.000142515 0)
(48.7948 0.000107631 0)
(48.3307 0.000149774 0)
(48.2558 0.000179982 0)
(48.3648 0.000199906 0)
(48.4283 0.000149911 0)
(48.4202 9.35993e-05 0)
(48.3984 0.00010756 0)
(48.3925 0.000127113 0)
(48.397 0.000158967 0)
(48.4001 0.000175176 0)
(48.3999 0.000152215 0)
(48.3989 0.000124368 0)
(48.3985 0.000109064 0)
(48.3985 0.000102606 0)
(48.3987 0.000102566 0)
(48.3988 0.000100712 0)
(48.3987 5.78221e-05 0)
(48.3988 4.45211e-05 0)
(48.399 0.000110891 0)
(48.399 0.000192585 0)
(48.399 0.000239433 0)
(48.3989 0.000254175 0)
(48.3989 0.000255541 0)
(48.3989 0.000243079 0)
(48.3988 0.000188718 0)
(48.3988 8.52794e-05 0)
(48.3988 -3.28155e-05 0)
(48.3989 -0.000125456 0)
(48.3991 -0.00015916 0)
(48.3992 -0.000123262 0)
(48.3993 -4.38021e-05 0)
(48.3994 4.76454e-05 0)
(48.3995 0.000134007 0)
(48.3996 0.000203861 0)
(48.3996 0.000252246 0)
(48.3997 0.000273598 0)
(48.3997 0.000248961 0)
(48.3997 0.000169412 0)
(48.3996 6.90093e-05 0)
(48.3997 -9.37844e-07 0)
(48.3999 -2.6031e-05 0)
(48.4 -2.63867e-05 0)
(48.4002 -9.56435e-06 0)
(48.4004 3.69243e-05 0)
(48.4006 0.00010557 0)
(48.4006 0.000164998 0)
(48.4005 0.000204062 0)
(48.4005 0.00024536 0)
(48.4004 0.000295204 0)
(48.4004 0.000321476 0)
(48.4003 0.000308613 0)
(48.4002 0.000296047 0)
(48.4003 0.000328124 0)
(48.4003 0.000390638 0)
(48.4003 0.000433387 0)
(48.4003 0.000439165 0)
(48.4004 0.000432072 0)
(48.4005 0.000423238 0)
(48.4007 0.00039446 0)
(48.4007 0.000334077 0)
(48.4007 0.000256376 0)
(48.4008 0.000179969 0)
(48.4009 0.000110629 0)
(48.4011 5.30111e-05 0)
(48.4012 2.05124e-05 0)
(48.4014 2.36236e-05 0)
(48.4015 5.78921e-05 0)
(48.4017 0.000108608 0)
(48.4018 0.000161801 0)
(48.4019 0.000209833 0)
(48.4019 0.000252211 0)
(48.4019 0.000292 0)
(48.402 0.000328187 0)
(48.4021 0.000353127 0)
(48.4021 0.000362103 0)
(48.4021 0.000362937 0)
(48.4022 0.000367 0)
(48.4023 0.000370226 0)
(48.4025 0.000353621 0)
(48.4027 0.00030876 0)
(48.4028 0.00025428 0)
(48.403 0.000217193 0)
(48.4032 0.000201848 0)
(48.4034 0.00018786 0)
(48.4036 0.000158233 0)
(48.4038 0.000119904 0)
(48.404 9.1979e-05 0)
(48.4042 8.61534e-05 0)
(48.4044 9.82716e-05 0)
(48.4047 0.000117451 0)
(48.405 0.000137221 0)
(48.4053 0.000158387 0)
(48.4056 0.000185807 0)
(48.4058 0.000224758 0)
(48.4061 0.000277512 0)
(48.4063 0.000342816 0)
(48.4065 0.000414139 0)
(48.4066 0.000481673 0)
(48.4067 0.000537182 0)
(48.4067 0.00057726 0)
(48.4066 0.000600564 0)
(48.4065 0.000602894 0)
(48.4064 0.000579144 0)
(48.4062 0.000530321 0)
(48.406 0.000465528 0)
(48.4058 0.000393666 0)
(48.4056 0.000313557 0)
(48.4054 0.000214772 0)
(48.4052 9.26621e-05 0)
(48.4051 -3.95061e-05 0)
(48.405 -0.000155812 0)
(48.4048 -0.00023731 0)
(48.4047 -0.000281964 0)
(48.4046 -0.000299766 0)
(48.4044 -0.000302832 0)
(48.4043 -0.000299555 0)
(48.4041 -0.000294237 0)
(48.404 -0.000287056 0)
(48.4038 -0.000273359 0)
(48.4036 -0.000245708 0)
(48.4034 -0.000200377 0)
(48.4032 -0.000145061 0)
(48.4031 -9.79696e-05 0)
(48.4029 -7.45925e-05 0)
(48.4028 -7.55906e-05 0)
(48.4026 -8.54684e-05 0)
(48.4025 -8.38061e-05 0)
(48.4024 -6.12521e-05 0)
(48.4023 -2.69421e-05 0)
(48.4022 -1.44402e-06 0)
(48.4021 -9.07548e-07 0)
(48.402 -2.54983e-05 0)
(48.402 -6.06422e-05 0)
(48.4019 -9.01497e-05 0)
(48.4019 -0.000109143 0)
(48.4018 -0.000125297 0)
(48.4018 -0.00014869 0)
(48.4017 -0.000180424 0)
(48.4017 -0.000211087 0)
(48.4016 -0.000229306 0)
(48.4016 -0.000230656 0)
(48.4016 -0.000218487 0)
(48.4016 -0.000198432 0)
(48.4016 -0.000174563 0)
(48.4017 -0.00015062 0)
(48.4017 -0.000132417 0)
(48.4018 -0.0001264 0)
(48.4018 -0.000134961 0)
(48.4019 -0.000153239 0)
(48.402 -0.000170375 0)
(48.402 -0.000174863 0)
(48.4021 -0.000161216 0)
(48.4021 -0.000133785 0)
(48.4022 -0.000104677 0)
(48.4022 -8.61967e-05 0)
(48.4023 -8.33501e-05 0)
(48.4023 -9.18466e-05 0)
(48.4023 -0.000104068 0)
(48.4024 -0.000115887 0)
(48.4025 -0.000127599 0)
(48.4025 -0.000138763 0)
(48.4025 -0.000144279 0)
(48.4025 -0.000138042 0)
(48.4026 -0.000120744 0)
(48.4026 -0.000101877 0)
(48.4026 -9.2198e-05 0)
(48.4026 -9.4494e-05 0)
(48.4026 -0.000102462 0)
(48.4027 -0.000108018 0)
(48.4027 -0.000108044 0)
(48.4027 -0.000103828 0)
(48.4027 -9.59215e-05 0)
(48.4027 -8.20901e-05 0)
(48.4027 -6.03831e-05 0)
(48.4027 -3.25188e-05 0)
(48.4027 -2.99304e-06 0)
(48.4027 2.45635e-05 0)
(48.4027 4.87487e-05 0)
(48.4026 6.79917e-05 0)
(48.4026 8.05897e-05 0)
(48.4026 8.74522e-05 0)
(48.4026 9.42e-05 0)
(48.4026 0.000108542 0)
(48.4025 0.000134769 0)
(48.4025 0.000171094 0)
(48.4024 0.000212458 0)
(48.4024 0.000255075 0)
(48.4023 0.000297389 0)
(48.4022 0.00033721 0)
(48.4021 0.000369845 0)
(48.4021 0.000390548 0)
(48.402 0.000398788 0)
(48.4019 0.000399484 0)
(48.4018 0.000400041 0)
(48.4017 0.000406589 0)
(48.4016 0.000422578 0)
(48.4015 0.000449079 0)
(48.4014 0.000484592 0)
(48.4013 0.000524417 0)
(48.4012 0.000561626 0)
(48.4011 0.000589894 0)