/*--------------------------------*- C++ -*----------------------------------*\
| =========                 |                                                 |
| \\      /  F ield         | OpenFOAM: The Open Source CFD Toolbox           |
|  \\    /   O peration     | Version:  2406                                  |
|   \\  /    A nd           | Website:  www.openfoam.com                      |
|    \\/     M anipulation  |                                                 |
\*---------------------------------------------------------------------------*/
FoamFile
{
    version     2.0;
    format      ascii;
    arch        "LSB;label=32;scalar=64";
    class       volVectorField;
    location    "0.35";
    object      U;
}
// * * * * * * * * * * * * * * * * * * * * * * * * * * * * * * * * * * * * * //

dimensions      [0 1 -1 0 0 0 0];

internalField   nonuniform List<vector> 
6250
(
(51.2223 0.00688387 0)
(85.5838 0.0314019 0)
(72.719 0.0457983 0)
(60.0633 0.0495163 0)
(59.5166 0.0507618 0)
(63.0223 0.0540304 0)
(64.463 0.0584929 0)
(63.9458 0.0622625 0)
(63.2986 0.064906 0)
(63.1774 0.0669778 0)
(63.2945 0.0689057 0)
(63.3466 0.0707196 0)
(63.3033 0.0723257 0)
(63.2422 0.0737066 0)
(63.2024 0.0749114 0)
(63.1757 0.0759862 0)
(63.1475 0.0769512 0)
(63.1147 0.0778146 0)
(63.0805 0.078586 0)
(63.047 0.0792773 0)
(63.0141 0.0798994 0)
(62.9811 0.0804607 0)
(62.9478 0.0809678 0)
(62.9144 0.0814266 0)
(62.881 0.0818422 0)
(62.8475 0.0822194 0)
(62.814 0.0825621 0)
(62.7805 0.0828738 0)
(62.747 0.0831575 0)
(62.7134 0.0834159 0)
(62.6798 0.0836513 0)
(62.6462 0.0838658 0)
(62.6126 0.0840614 0)
(62.579 0.0842396 0)
(62.5454 0.0844019 0)
(62.5118 0.0845496 0)
(62.4781 0.084684 0)
(62.4445 0.084806 0)
(62.4108 0.0849167 0)
(62.3772 0.0850168 0)
(62.3436 0.0851073 0)
(62.3099 0.0851887 0)
(62.2763 0.0852617 0)
(62.2427 0.0853269 0)
(62.209 0.0853848 0)
(62.1754 0.085436 0)
(62.1418 0.0854808 0)
(62.1082 0.0855196 0)
(62.0746 0.0855529 0)
(62.041 0.0855809 0)
(62.0074 0.085604 0)
(61.9738 0.0856225 0)
(61.9402 0.0856366 0)
(61.9067 0.0856466 0)
(61.8731 0.0856527 0)
(61.8395 0.0856551 0)
(61.806 0.085654 0)
(61.7725 0.0856496 0)
(61.7389 0.0856421 0)
(61.7054 0.0856317 0)
(61.6719 0.0856184 0)
(61.6384 0.0856024 0)
(61.6049 0.0855839 0)
(61.5714 0.0855629 0)
(61.5379 0.0855396 0)
(61.5044 0.0855141 0)
(61.4709 0.0854865 0)
(61.4375 0.0854569 0)
(61.404 0.0854254 0)
(61.3706 0.085392 0)
(61.3372 0.0853568 0)
(61.3037 0.08532 0)
(61.2703 0.0852815 0)
(61.2369 0.0852415 0)
(61.2035 0.0852 0)
(61.1701 0.0851571 0)
(61.1367 0.0851128 0)
(61.1034 0.0850672 0)
(61.07 0.0850204 0)
(61.0366 0.0849723 0)
(61.0033 0.0849231 0)
(60.97 0.0848727 0)
(60.9366 0.0848213 0)
(60.9033 0.0847689 0)
(60.87 0.0847154 0)
(60.8367 0.084661 0)
(60.8034 0.0846057 0)
(60.7701 0.0845495 0)
(60.7368 0.0844924 0)
(60.7036 0.0844345 0)
(60.6703 0.0843758 0)
(60.637 0.0843163 0)
(60.6038 0.0842561 0)
(60.5706 0.0841952 0)
(60.5373 0.0841336 0)
(60.5041 0.0840713 0)
(60.4709 0.0840084 0)
(60.4377 0.0839449 0)
(60.4045 0.0838807 0)
(60.3714 0.083816 0)
(60.3382 0.0837507 0)
(60.305 0.0836849 0)
(60.2719 0.0836186 0)
(60.2387 0.0835518 0)
(60.2056 0.0834845 0)
(60.1725 0.0834167 0)
(60.1393 0.0833484 0)
(60.1062 0.0832797 0)
(60.0731 0.0832106 0)
(60.04 0.0831411 0)
(60.007 0.0830712 0)
(59.9739 0.0830008 0)
(59.9408 0.0829302 0)
(59.9078 0.0828591 0)
(59.8747 0.0827877 0)
(59.8417 0.082716 0)
(59.8087 0.0826439 0)
(59.7756 0.0825715 0)
(59.7426 0.0824988 0)
(59.7096 0.0824258 0)
(59.6766 0.0823525 0)
(59.6436 0.0822789 0)
(59.6107 0.0822051 0)
(59.5777 0.082131 0)
(59.5447 0.0820566 0)
(59.5118 0.081982 0)
(59.4789 0.0819071 0)
(59.4459 0.081832 0)
(59.413 0.0817567 0)
(59.3801 0.0816812 0)
(59.3472 0.0816054 0)
(59.3143 0.0815294 0)
(59.2814 0.0814533 0)
(59.2485 0.0813769 0)
(59.2157 0.0813003 0)
(59.1828 0.0812236 0)
(59.15 0.0811467 0)
(59.1171 0.0810696 0)
(59.0843 0.0809923 0)
(59.0515 0.0809149 0)
(59.0187 0.0808373 0)
(58.9858 0.0807595 0)
(58.9531 0.0806816 0)
(58.9203 0.0806036 0)
(58.8875 0.0805254 0)
(58.8547 0.080447 0)
(58.822 0.0803686 0)
(58.7892 0.08029 0)
(58.7565 0.0802112 0)
(58.7237 0.0801324 0)
(58.691 0.0800534 0)
(58.6583 0.0799743 0)
(58.6256 0.0798951 0)
(58.5929 0.0798158 0)
(58.5602 0.0797364 0)
(58.5275 0.0796568 0)
(58.4949 0.0795772 0)
(58.4622 0.0794975 0)
(58.4296 0.0794176 0)
(58.3969 0.0793377 0)
(58.3643 0.0792577 0)
(58.3317 0.0791776 0)
(58.2991 0.0790974 0)
(58.2665 0.0790171 0)
(58.2339 0.0789367 0)
(58.2013 0.0788563 0)
(58.1687 0.0787758 0)
(58.1361 0.0786952 0)
(58.1036 0.0786145 0)
(58.071 0.0785337 0)
(58.0385 0.0784529 0)
(58.006 0.078372 0)
(57.9734 0.0782911 0)
(57.9409 0.0782101 0)
(57.9084 0.078129 0)
(57.8759 0.0780479 0)
(57.8434 0.0779667 0)
(57.811 0.0778855 0)
(57.7785 0.0778042 0)
(57.746 0.0777228 0)
(57.7136 0.0776414 0)
(57.6812 0.0775599 0)
(57.6487 0.0774784 0)
(57.6163 0.0773969 0)
(57.5839 0.0773153 0)
(57.5515 0.0772337 0)
(57.5191 0.077152 0)
(57.4867 0.0770703 0)
(57.4544 0.0769885 0)
(57.422 0.0769067 0)
(57.3896 0.0768249 0)
(57.3573 0.076743 0)
(57.325 0.0766611 0)
(57.2926 0.0765792 0)
(57.2603 0.0764973 0)
(57.228 0.0764153 0)
(57.1957 0.0763334 0)
(57.1634 0.0762514 0)
(57.1311 0.0761694 0)
(57.0989 0.0760873 0)
(57.0666 0.0760052 0)
(57.0343 0.075923 0)
(57.0021 0.0758408 0)
(56.9699 0.0757587 0)
(56.9376 0.0756766 0)
(56.9054 0.0755946 0)
(56.8732 0.0755126 0)
(56.841 0.0754307 0)
(56.8088 0.0753488 0)
(56.7767 0.0752669 0)
(56.7445 0.0751848 0)
(56.7123 0.0751027 0)
(56.6802 0.0750206 0)
(56.648 0.0749385 0)
(56.6159 0.0748564 0)
(56.5838 0.0747745 0)
(56.5517 0.0746929 0)
(56.5196 0.0746115 0)
(56.4875 0.0745303 0)
(56.4554 0.0744494 0)
(56.4233 0.0743686 0)
(56.3912 0.0742879 0)
(56.3592 0.0742073 0)
(56.3271 0.0741269 0)
(56.2951 0.0740466 0)
(56.263 0.0739666 0)
(56.231 0.0738871 0)
(56.199 0.0738082 0)
(56.167 0.0737301 0)
(56.1349 0.073653 0)
(56.1029 0.0735771 0)
(56.0709 0.0735026 0)
(56.0389 0.0734298 0)
(56.0069 0.073359 0)
(55.975 0.0732907 0)
(55.943 0.0732254 0)
(55.911 0.0731638 0)
(55.879 0.0731072 0)
(55.847 0.0730571 0)
(55.8149 0.0730155 0)
(55.7829 0.0729855 0)
(55.7508 0.0729713 0)
(55.7187 0.0729799 0)
(55.6865 0.0730175 0)
(55.6543 0.0731074 0)
(55.6218 0.0732375 0)
(55.5898 0.0735408 0)
(55.5554 0.0737479 0)
(55.5285 0.0747744 0)
(55.4777 0.0743727 0)
(51.2398 0.00429181 0)
(85.6467 0.0221437 0)
(72.833 0.0360028 0)
(60.2189 0.0403295 0)
(59.7053 0.0406007 0)
(63.2463 0.0420508 0)
(64.7295 0.0448351 0)
(64.2596 0.047175 0)
(63.66 0.0484193 0)
(63.5857 0.0490596 0)
(63.7497 0.0495961 0)
(63.8499 0.0501093 0)
(63.8554 0.0505014 0)
(63.8438 0.0507396 0)
(63.8535 0.0508695 0)
(63.8765 0.0509394 0)
(63.8983 0.0509689 0)
(63.9157 0.0509616 0)
(63.9318 0.0509223 0)
(63.9487 0.0508591 0)
(63.9662 0.0507793 0)
(63.9838 0.050688 0)
(64.0012 0.0505884 0)
(64.0185 0.050483 0)
(64.0357 0.0503741 0)
(64.053 0.0502635 0)
(64.0702 0.0501527 0)
(64.0874 0.0500428 0)
(64.1046 0.0499345 0)
(64.1217 0.0498285 0)
(64.1388 0.0497254 0)
(64.1558 0.0496255 0)
(64.1728 0.0495291 0)
(64.1898 0.0494363 0)
(64.2067 0.0493473 0)
(64.2236 0.0492623 0)
(64.2405 0.0491811 0)
(64.2572 0.0491039 0)
(64.274 0.0490306 0)
(64.2907 0.0489611 0)
(64.3074 0.0488955 0)
(64.324 0.0488335 0)
(64.3406 0.0487752 0)
(64.3571 0.0487205 0)
(64.3736 0.0486692 0)
(64.3901 0.0486213 0)
(64.4065 0.0485766 0)
(64.4228 0.0485352 0)
(64.4391 0.0484967 0)
(64.4554 0.0484613 0)
(64.4716 0.0484287 0)
(64.4878 0.0483988 0)
(64.5039 0.0483716 0)
(64.52 0.0483471 0)
(64.5361 0.048325 0)
(64.5521 0.0483052 0)
(64.568 0.0482879 0)
(64.584 0.0482727 0)
(64.5998 0.0482597 0)
(64.6157 0.0482487 0)
(64.6314 0.0482398 0)
(64.6472 0.0482327 0)
(64.6629 0.0482275 0)
(64.6785 0.0482241 0)
(64.6941 0.0482224 0)
(64.7097 0.0482224 0)
(64.7252 0.0482239 0)
(64.7407 0.048227 0)
(64.7561 0.0482316 0)
(64.7715 0.0482375 0)
(64.7868 0.0482449 0)
(64.8021 0.0482536 0)
(64.8174 0.0482635 0)
(64.8326 0.0482747 0)
(64.8477 0.048287 0)
(64.8629 0.0483005 0)
(64.8779 0.0483151 0)
(64.893 0.0483308 0)
(64.908 0.0483474 0)
(64.9229 0.0483651 0)
(64.9378 0.0483837 0)
(64.9527 0.0484032 0)
(64.9675 0.0484236 0)
(64.9823 0.0484448 0)
(64.997 0.0484669 0)
(65.0117 0.0484898 0)
(65.0263 0.0485134 0)
(65.0409 0.0485378 0)
(65.0555 0.0485628 0)
(65.07 0.0485886 0)
(65.0845 0.048615 0)
(65.0989 0.0486421 0)
(65.1133 0.0486698 0)
(65.1277 0.0486981 0)
(65.142 0.0487269 0)
(65.1562 0.0487563 0)
(65.1704 0.0487863 0)
(65.1846 0.0488168 0)
(65.1988 0.0488477 0)
(65.2129 0.0488792 0)
(65.2269 0.0489111 0)
(65.2409 0.0489435 0)
(65.2549 0.0489763 0)
(65.2688 0.0490096 0)
(65.2827 0.0490432 0)
(65.2965 0.0490773 0)
(65.3103 0.0491117 0)
(65.3241 0.0491465 0)
(65.3378 0.0491817 0)
(65.3515 0.0492172 0)
(65.3651 0.0492531 0)
(65.3787 0.0492892 0)
(65.3922 0.0493257 0)
(65.4057 0.0493625 0)
(65.4192 0.0493996 0)
(65.4326 0.0494369 0)
(65.446 0.0494746 0)
(65.4594 0.0495125 0)
(65.4727 0.0495506 0)
(65.4859 0.0495891 0)
(65.4991 0.0496277 0)
(65.5123 0.0496666 0)
(65.5255 0.0497057 0)
(65.5386 0.049745 0)
(65.5516 0.0497846 0)
(65.5646 0.0498243 0)
(65.5776 0.0498643 0)
(65.5905 0.0499044 0)
(65.6034 0.0499448 0)
(65.6163 0.0499853 0)
(65.6291 0.0500259 0)
(65.6419 0.0500668 0)
(65.6546 0.0501078 0)
(65.6673 0.050149 0)
(65.6799 0.0501903 0)
(65.6926 0.0502318 0)
(65.7051 0.0502734 0)
(65.7177 0.0503152 0)
(65.7302 0.0503571 0)
(65.7426 0.0503991 0)
(65.755 0.0504412 0)
(65.7674 0.0504835 0)
(65.7797 0.0505259 0)
(65.792 0.0505684 0)
(65.8043 0.050611 0)
(65.8165 0.0506537 0)
(65.8287 0.0506966 0)
(65.8408 0.0507395 0)
(65.8529 0.0507825 0)
(65.8649 0.0508257 0)
(65.877 0.0508689 0)
(65.8889 0.0509122 0)
(65.9009 0.0509555 0)
(65.9128 0.050999 0)
(65.9246 0.0510425 0)
(65.9365 0.0510862 0)
(65.9483 0.0511298 0)
(65.96 0.0511736 0)
(65.9717 0.0512174 0)
(65.9834 0.0512613 0)
(65.995 0.0513053 0)
(66.0066 0.0513493 0)
(66.0181 0.0513934 0)
(66.0296 0.0514375 0)
(66.0411 0.0514817 0)
(66.0526 0.0515259 0)
(66.064 0.0515702 0)
(66.0753 0.0516146 0)
(66.0866 0.0516589 0)
(66.0979 0.0517034 0)
(66.1092 0.0517478 0)
(66.1204 0.0517923 0)
(66.1315 0.0518369 0)
(66.1427 0.0518815 0)
(66.1538 0.0519261 0)
(66.1648 0.0519707 0)
(66.1758 0.0520154 0)
(66.1868 0.0520601 0)
(66.1977 0.0521049 0)
(66.2086 0.0521496 0)
(66.2195 0.0521944 0)
(66.2303 0.0522393 0)
(66.2411 0.0522841 0)
(66.2519 0.052329 0)
(66.2626 0.0523738 0)
(66.2733 0.0524187 0)
(66.2839 0.0524637 0)
(66.2945 0.0525086 0)
(66.3051 0.0525536 0)
(66.3156 0.0525986 0)
(66.3261 0.0526436 0)
(66.3366 0.0526886 0)
(66.347 0.0527336 0)
(66.3574 0.0527786 0)
(66.3677 0.0528236 0)
(66.378 0.0528687 0)
(66.3883 0.0529137 0)
(66.3985 0.0529588 0)
(66.4087 0.0530039 0)
(66.4189 0.053049 0)
(66.429 0.0530942 0)
(66.4391 0.0531394 0)
(66.4491 0.0531846 0)
(66.4592 0.0532298 0)
(66.4691 0.053275 0)
(66.4791 0.0533201 0)
(66.489 0.0533653 0)
(66.4988 0.0534105 0)
(66.5087 0.0534558 0)
(66.5185 0.0535011 0)
(66.5282 0.0535466 0)
(66.538 0.0535922 0)
(66.5477 0.0536379 0)
(66.5573 0.0536836 0)
(66.5669 0.0537293 0)
(66.5765 0.0537751 0)
(66.586 0.0538209 0)
(66.5956 0.0538668 0)
(66.605 0.0539129 0)
(66.6145 0.0539592 0)
(66.6239 0.0540057 0)
(66.6332 0.0540526 0)
(66.6426 0.0540999 0)
(66.6519 0.0541475 0)
(66.6611 0.0541956 0)
(66.6703 0.0542442 0)
(66.6795 0.0542934 0)
(66.6887 0.0543433 0)
(66.6978 0.0543941 0)
(66.7069 0.0544458 0)
(66.7159 0.0544988 0)
(66.725 0.0545534 0)
(66.7339 0.05461 0)
(66.7429 0.0546689 0)
(66.7518 0.0547308 0)
(66.7607 0.0547965 0)
(66.7695 0.0548669 0)
(66.7783 0.0549434 0)
(66.7871 0.0550277 0)
(66.7959 0.0551219 0)
(66.8046 0.0552292 0)
(66.8133 0.0553533 0)
(66.822 0.0555003 0)
(66.8307 0.0556751 0)
(66.8394 0.0558956 0)
(66.8482 0.05615 0)
(66.8569 0.0565364 0)
(66.8662 0.0568374 0)
(66.8739 0.0577232 0)
(66.8879 0.0575213 0)
(51.2382 0.000483203 0)
(85.6343 0.00193731 0)
(72.7972 0.0035033 0)
(60.1636 0.00537322 0)
(59.6398 0.00698246 0)
(63.1726 0.00816295 0)
(64.6436 0.00907752 0)
(64.1583 0.00986475 0)
(63.5433 0.0105511 0)
(63.4544 0.0111437 0)
(63.6043 0.0116731 0)
(63.6899 0.0121632 0)
(63.6804 0.0126194 0)
(63.6536 0.0130429 0)
(63.6481 0.0134395 0)
(63.6559 0.0138161 0)
(63.6625 0.0141764 0)
(63.6646 0.014522 0)
(63.6653 0.0148536 0)
(63.6668 0.0151727 0)
(63.669 0.0154807 0)
(63.6712 0.0157785 0)
(63.6732 0.0160669 0)
(63.6751 0.0163462 0)
(63.6771 0.0166172 0)
(63.679 0.0168804 0)
(63.681 0.0171362 0)
(63.6829 0.0173849 0)
(63.6849 0.0176271 0)
(63.6868 0.017863 0)
(63.6887 0.018093 0)
(63.6907 0.0183173 0)
(63.6926 0.0185363 0)
(63.6946 0.0187502 0)
(63.6965 0.0189593 0)
(63.6985 0.0191638 0)
(63.7005 0.019364 0)
(63.7025 0.0195599 0)
(63.7044 0.0197519 0)
(63.7064 0.0199401 0)
(63.7084 0.0201246 0)
(63.7104 0.0203057 0)
(63.7125 0.0204835 0)
(63.7145 0.0206581 0)
(63.7165 0.0208297 0)
(63.7186 0.0209984 0)
(63.7206 0.0211642 0)
(63.7227 0.0213274 0)
(63.7248 0.021488 0)
(63.7269 0.0216462 0)
(63.729 0.0218019 0)
(63.7311 0.0219554 0)
(63.7332 0.0221066 0)
(63.7354 0.0222557 0)
(63.7375 0.0224028 0)
(63.7397 0.0225479 0)
(63.7418 0.0226911 0)
(63.744 0.0228324 0)
(63.7462 0.022972 0)
(63.7484 0.0231098 0)
(63.7506 0.0232459 0)
(63.7529 0.0233805 0)
(63.7551 0.0235135 0)
(63.7574 0.0236449 0)
(63.7596 0.0237749 0)
(63.7619 0.0239035 0)
(63.7642 0.0240307 0)
(63.7665 0.0241566 0)
(63.7688 0.0242811 0)
(63.7711 0.0244044 0)
(63.7735 0.0245265 0)
(63.7758 0.0246474 0)
(63.7782 0.0247671 0)
(63.7806 0.0248857 0)
(63.7829 0.0250032 0)
(63.7853 0.0251197 0)
(63.7877 0.0252351 0)
(63.7902 0.0253494 0)
(63.7926 0.0254629 0)
(63.795 0.0255753 0)
(63.7975 0.0256868 0)
(63.8 0.0257974 0)
(63.8024 0.0259072 0)
(63.8049 0.026016 0)
(63.8074 0.026124 0)
(63.81 0.0262312 0)
(63.8125 0.0263376 0)
(63.815 0.0264431 0)
(63.8176 0.0265479 0)
(63.8201 0.026652 0)
(63.8227 0.0267553 0)
(63.8253 0.0268579 0)
(63.8279 0.0269598 0)
(63.8305 0.027061 0)
(63.8331 0.0271615 0)
(63.8358 0.0272614 0)
(63.8384 0.0273606 0)
(63.8411 0.0274592 0)
(63.8437 0.0275571 0)
(63.8464 0.0276545 0)
(63.8491 0.0277512 0)
(63.8518 0.0278474 0)
(63.8545 0.027943 0)
(63.8573 0.028038 0)
(63.86 0.0281324 0)
(63.8628 0.0282263 0)
(63.8655 0.0283197 0)
(63.8683 0.0284126 0)
(63.8711 0.0285049 0)
(63.8739 0.0285967 0)
(63.8767 0.028688 0)
(63.8795 0.0287788 0)
(63.8824 0.0288692 0)
(63.8852 0.028959 0)
(63.8881 0.0290484 0)
(63.8909 0.0291373 0)
(63.8938 0.0292258 0)
(63.8967 0.0293138 0)
(63.8996 0.0294014 0)
(63.9025 0.0294885 0)
(63.9055 0.0295752 0)
(63.9084 0.0296615 0)
(63.9113 0.0297473 0)
(63.9143 0.0298328 0)
(63.9173 0.0299178 0)
(63.9203 0.0300024 0)
(63.9233 0.0300867 0)
(63.9263 0.0301705 0)
(63.9293 0.0302539 0)
(63.9323 0.030337 0)
(63.9354 0.0304197 0)
(63.9384 0.030502 0)
(63.9415 0.030584 0)
(63.9446 0.0306655 0)
(63.9477 0.0307468 0)
(63.9508 0.0308276 0)
(63.9539 0.0309081 0)
(63.957 0.0309883 0)
(63.9601 0.0310681 0)
(63.9633 0.0311476 0)
(63.9664 0.0312267 0)
(63.9696 0.0313055 0)
(63.9728 0.031384 0)
(63.976 0.0314621 0)
(63.9792 0.0315399 0)
(63.9824 0.0316174 0)
(63.9856 0.0316946 0)
(63.9888 0.0317714 0)
(63.9921 0.031848 0)
(63.9953 0.0319242 0)
(63.9986 0.0320001 0)
(64.0019 0.0320757 0)
(64.0052 0.0321511 0)
(64.0085 0.0322261 0)
(64.0118 0.0323008 0)
(64.0151 0.0323752 0)
(64.0184 0.0324494 0)
(64.0218 0.0325232 0)
(64.0251 0.0325968 0)
(64.0285 0.03267 0)
(64.0319 0.032743 0)
(64.0352 0.0328158 0)
(64.0386 0.0328882 0)
(64.0421 0.0329603 0)
(64.0455 0.0330322 0)
(64.0489 0.0331038 0)
(64.0523 0.0331752 0)
(64.0558 0.0332463 0)
(64.0593 0.0333171 0)
(64.0627 0.0333876 0)
(64.0662 0.0334579 0)
(64.0697 0.033528 0)
(64.0732 0.0335977 0)
(64.0767 0.0336672 0)
(64.0803 0.0337365 0)
(64.0838 0.0338055 0)
(64.0873 0.0338743 0)
(64.0909 0.0339428 0)
(64.0945 0.034011 0)
(64.098 0.0340791 0)
(64.1016 0.0341469 0)
(64.1052 0.0342144 0)
(64.1088 0.0342817 0)
(64.1125 0.0343488 0)
(64.1161 0.0344156 0)
(64.1197 0.0344822 0)
(64.1234 0.0345485 0)
(64.127 0.0346147 0)
(64.1307 0.0346805 0)
(64.1344 0.0347462 0)
(64.1381 0.0348117 0)
(64.1418 0.034877 0)
(64.1455 0.034942 0)
(64.1492 0.0350069 0)
(64.153 0.0350715 0)
(64.1567 0.0351358 0)
(64.1605 0.0351999 0)
(64.1642 0.0352638 0)
(64.168 0.0353274 0)
(64.1718 0.0353909 0)
(64.1756 0.0354543 0)
(64.1794 0.0355175 0)
(64.1832 0.0355806 0)
(64.187 0.0356435 0)
(64.1909 0.0357062 0)
(64.1947 0.0357687 0)
(64.1985 0.0358309 0)
(64.2024 0.0358928 0)
(64.2063 0.0359545 0)
(64.2102 0.036016 0)
(64.2141 0.0360774 0)
(64.218 0.0361388 0)
(64.2219 0.0362002 0)
(64.2258 0.0362616 0)
(64.2297 0.036323 0)
(64.2337 0.0363843 0)
(64.2376 0.0364455 0)
(64.2416 0.0365066 0)
(64.2455 0.0365675 0)
(64.2495 0.0366282 0)
(64.2535 0.0366888 0)
(64.2575 0.0367494 0)
(64.2615 0.0368102 0)
(64.2655 0.0368712 0)
(64.2696 0.0369325 0)
(64.2736 0.0369943 0)
(64.2776 0.0370566 0)
(64.2817 0.0371194 0)
(64.2858 0.0371828 0)
(64.2898 0.0372469 0)
(64.2939 0.0373118 0)
(64.298 0.0373777 0)
(64.3021 0.0374448 0)
(64.3062 0.0375132 0)
(64.3103 0.0375835 0)
(64.3145 0.0376559 0)
(64.3186 0.037731 0)
(64.3227 0.0378095 0)
(64.3269 0.0378921 0)
(64.3311 0.0379796 0)
(64.3353 0.0380728 0)
(64.3395 0.0381725 0)
(64.3437 0.038279 0)
(64.3479 0.0383921 0)
(64.3522 0.0385089 0)
(64.3565 0.038628 0)
(64.3608 0.0387267 0)
(64.3654 0.0388262 0)
(64.369 0.038779 0)
(64.376 0.0388746 0)
(51.2406 0.00089319 0)
(85.6413 0.00551911 0)
(72.8075 0.0106479 0)
(60.1736 0.0147756 0)
(59.6477 0.0177802 0)
(63.1789 0.0201501 0)
(64.6494 0.0223179 0)
(64.164 0.0243907 0)
(63.5485 0.0262731 0)
(63.459 0.0278928 0)
(63.6083 0.0292741 0)
(63.6933 0.030477 0)
(63.6834 0.0315392 0)
(63.656 0.0324728 0)
(63.6501 0.0332859 0)
(63.6574 0.0339918 0)
(63.6635 0.0346059 0)
(63.6651 0.035141 0)
(63.6654 0.0356068 0)
(63.6665 0.0360115 0)
(63.6683 0.0363626 0)
(63.6701 0.036667 0)
(63.6717 0.0369305 0)
(63.6732 0.0371583 0)
(63.6747 0.0373549 0)
(63.6762 0.037524 0)
(63.6778 0.0376691 0)
(63.6793 0.0377932 0)
(63.6808 0.0378989 0)
(63.6824 0.0379886 0)
(63.6839 0.0380641 0)
(63.6854 0.0381272 0)
(63.687 0.0381796 0)
(63.6885 0.0382225 0)
(63.69 0.0382571 0)
(63.6916 0.0382845 0)
(63.6931 0.0383056 0)
(63.6946 0.0383213 0)
(63.6962 0.0383321 0)
(63.6977 0.0383388 0)
(63.6992 0.0383419 0)
(63.7008 0.0383419 0)
(63.7023 0.0383392 0)
(63.7039 0.0383342 0)
(63.7054 0.0383272 0)
(63.707 0.0383185 0)
(63.7085 0.0383084 0)
(63.7101 0.038297 0)
(63.7116 0.0382847 0)
(63.7132 0.0382716 0)
(63.7147 0.0382577 0)
(63.7163 0.0382434 0)
(63.7179 0.0382286 0)
(63.7194 0.0382135 0)
(63.721 0.0381981 0)
(63.7226 0.0381826 0)
(63.7241 0.0381671 0)
(63.7257 0.0381515 0)
(63.7273 0.0381359 0)
(63.7289 0.0381204 0)
(63.7304 0.0381051 0)
(63.732 0.0380898 0)
(63.7336 0.0380748 0)
(63.7352 0.03806 0)
(63.7368 0.0380454 0)
(63.7384 0.038031 0)
(63.74 0.0380169 0)
(63.7416 0.0380031 0)
(63.7432 0.0379895 0)
(63.7448 0.0379762 0)
(63.7464 0.0379633 0)
(63.748 0.0379506 0)
(63.7496 0.0379382 0)
(63.7512 0.0379261 0)
(63.7528 0.0379143 0)
(63.7545 0.0379028 0)
(63.7561 0.0378917 0)
(63.7577 0.0378808 0)
(63.7593 0.0378702 0)
(63.7609 0.0378599 0)
(63.7626 0.0378499 0)
(63.7642 0.0378402 0)
(63.7658 0.0378308 0)
(63.7674 0.0378217 0)
(63.7691 0.0378129 0)
(63.7707 0.0378043 0)
(63.7724 0.037796 0)
(63.774 0.037788 0)
(63.7756 0.0377803 0)
(63.7773 0.0377728 0)
(63.7789 0.0377655 0)
(63.7806 0.0377586 0)
(63.7822 0.0377518 0)
(63.7839 0.0377453 0)
(63.7855 0.0377391 0)
(63.7872 0.0377331 0)
(63.7889 0.0377273 0)
(63.7905 0.0377218 0)
(63.7922 0.0377164 0)
(63.7938 0.0377113 0)
(63.7955 0.0377065 0)
(63.7972 0.0377018 0)
(63.7988 0.0376973 0)
(63.8005 0.0376931 0)
(63.8022 0.037689 0)
(63.8039 0.0376852 0)
(63.8055 0.0376815 0)
(63.8072 0.0376781 0)
(63.8089 0.0376748 0)
(63.8106 0.0376717 0)
(63.8123 0.0376689 0)
(63.814 0.0376661 0)
(63.8157 0.0376636 0)
(63.8173 0.0376613 0)
(63.819 0.0376591 0)
(63.8207 0.0376571 0)
(63.8224 0.0376552 0)
(63.8241 0.0376535 0)
(63.8258 0.037652 0)
(63.8275 0.0376507 0)
(63.8292 0.0376495 0)
(63.831 0.0376484 0)
(63.8327 0.0376475 0)
(63.8344 0.0376468 0)
(63.8361 0.0376462 0)
(63.8378 0.0376458 0)
(63.8395 0.0376455 0)
(63.8412 0.0376453 0)
(63.843 0.0376453 0)
(63.8447 0.0376454 0)
(63.8464 0.0376457 0)
(63.8481 0.0376461 0)
(63.8499 0.0376466 0)
(63.8516 0.0376473 0)
(63.8533 0.0376481 0)
(63.8551 0.037649 0)
(63.8568 0.0376501 0)
(63.8585 0.0376513 0)
(63.8603 0.0376526 0)
(63.862 0.037654 0)
(63.8638 0.0376555 0)
(63.8655 0.0376572 0)
(63.8673 0.037659 0)
(63.869 0.0376609 0)
(63.8708 0.0376629 0)
(63.8725 0.037665 0)
(63.8743 0.0376673 0)
(63.876 0.0376697 0)
(63.8778 0.0376721 0)
(63.8796 0.0376747 0)
(63.8813 0.0376774 0)
(63.8831 0.0376802 0)
(63.8849 0.0376831 0)
(63.8866 0.0376861 0)
(63.8884 0.0376892 0)
(63.8902 0.0376924 0)
(63.892 0.0376957 0)
(63.8937 0.0376991 0)
(63.8955 0.0377026 0)
(63.8973 0.0377062 0)
(63.8991 0.0377099 0)
(63.9009 0.0377137 0)
(63.9026 0.0377176 0)
(63.9044 0.0377216 0)
(63.9062 0.0377257 0)
(63.908 0.0377299 0)
(63.9098 0.0377341 0)
(63.9116 0.0377385 0)
(63.9134 0.0377429 0)
(63.9152 0.0377475 0)
(63.917 0.0377521 0)
(63.9188 0.0377568 0)
(63.9206 0.0377616 0)
(63.9225 0.0377665 0)
(63.9243 0.0377715 0)
(63.9261 0.0377765 0)
(63.9279 0.0377817 0)
(63.9297 0.0377869 0)
(63.9315 0.0377922 0)
(63.9334 0.0377976 0)
(63.9352 0.037803 0)
(63.937 0.0378086 0)
(63.9388 0.0378142 0)
(63.9407 0.0378199 0)
(63.9425 0.0378257 0)
(63.9443 0.0378316 0)
(63.9462 0.0378376 0)
(63.948 0.0378436 0)
(63.9498 0.0378497 0)
(63.9517 0.0378558 0)
(63.9535 0.0378621 0)
(63.9554 0.0378684 0)
(63.9572 0.0378748 0)
(63.9591 0.0378813 0)
(63.9609 0.037888 0)
(63.9628 0.0378947 0)
(63.9646 0.0379015 0)
(63.9665 0.0379084 0)
(63.9684 0.0379153 0)
(63.9702 0.0379222 0)
(63.9721 0.0379292 0)
(63.974 0.0379362 0)
(63.9758 0.0379434 0)
(63.9777 0.0379508 0)
(63.9796 0.0379583 0)
(63.9814 0.037966 0)
(63.9833 0.0379739 0)
(63.9852 0.0379818 0)
(63.9871 0.0379899 0)
(63.989 0.0379979 0)
(63.9909 0.038006 0)
(63.9927 0.0380141 0)
(63.9946 0.0380223 0)
(63.9965 0.0380306 0)
(63.9984 0.0380393 0)
(64.0003 0.0380482 0)
(64.0022 0.0380575 0)
(64.0041 0.0380672 0)
(64.006 0.0380772 0)
(64.0079 0.0380875 0)
(64.0098 0.038098 0)
(64.0117 0.0381088 0)
(64.0136 0.0381197 0)
(64.0156 0.038131 0)
(64.0175 0.0381427 0)
(64.0194 0.0381549 0)
(64.0213 0.0381679 0)
(64.0232 0.0381816 0)
(64.0252 0.0381963 0)
(64.0271 0.0382121 0)
(64.029 0.0382291 0)
(64.0309 0.0382475 0)
(64.0329 0.0382674 0)
(64.0348 0.038289 0)
(64.0367 0.0383125 0)
(64.0387 0.0383382 0)
(64.0406 0.0383662 0)
(64.0426 0.0383969 0)
(64.0445 0.0384305 0)
(64.0465 0.0384673 0)
(64.0484 0.0385076 0)
(64.0504 0.0385513 0)
(64.0524 0.0385983 0)
(64.0543 0.0386481 0)
(64.0563 0.0386985 0)
(64.0584 0.0387491 0)
(64.0604 0.0387891 0)
(64.0625 0.0388338 0)
(64.0642 0.0388174 0)
(64.0673 0.0388946 0)
(51.2416 0.000615834 0)
(85.6433 0.00328483 0)
(72.8078 0.00577665 0)
(60.1717 0.00747479 0)
(59.6446 0.00864157 0)
(63.1755 0.00964797 0)
(64.6458 0.0106212 0)
(64.1599 0.0115123 0)
(63.5439 0.0122586 0)
(63.454 0.0128579 0)
(63.603 0.0133484 0)
(63.6879 0.013765 0)
(63.6778 0.0141231 0)
(63.6503 0.0144275 0)
(63.6443 0.0146838 0)
(63.6516 0.0149008 0)
(63.6577 0.0150871 0)
(63.6593 0.0152489 0)
(63.6597 0.0153906 0)
(63.6608 0.0155156 0)
(63.6626 0.0156273 0)
(63.6645 0.0157284 0)
(63.6662 0.0158211 0)
(63.6677 0.0159071 0)
(63.6694 0.015988 0)
(63.671 0.0160649 0)
(63.6726 0.0161387 0)
(63.6743 0.0162104 0)
(63.6759 0.0162805 0)
(63.6775 0.0163495 0)
(63.6791 0.0164179 0)
(63.6807 0.016486 0)
(63.6824 0.016554 0)
(63.684 0.0166222 0)
(63.6856 0.0166908 0)
(63.6872 0.0167597 0)
(63.6888 0.0168292 0)
(63.6905 0.0168993 0)
(63.6921 0.01697 0)
(63.6937 0.0170414 0)
(63.6953 0.0171134 0)
(63.6969 0.0171861 0)
(63.6986 0.0172595 0)
(63.7002 0.0173335 0)
(63.7018 0.0174081 0)
(63.7034 0.0174833 0)
(63.7051 0.017559 0)
(63.7067 0.0176353 0)
(63.7083 0.0177121 0)
(63.71 0.0177894 0)
(63.7116 0.0178671 0)
(63.7132 0.0179452 0)
(63.7149 0.0180237 0)
(63.7165 0.0181026 0)
(63.7182 0.0181817 0)
(63.7198 0.0182611 0)
(63.7215 0.0183408 0)
(63.7231 0.0184207 0)
(63.7248 0.0185007 0)
(63.7264 0.018581 0)
(63.7281 0.0186614 0)
(63.7297 0.0187419 0)
(63.7314 0.0188225 0)
(63.733 0.0189032 0)
(63.7347 0.0189839 0)
(63.7364 0.0190647 0)
(63.738 0.0191455 0)
(63.7397 0.0192263 0)
(63.7414 0.0193071 0)
(63.743 0.0193878 0)
(63.7447 0.0194685 0)
(63.7464 0.0195492 0)
(63.7481 0.0196297 0)
(63.7497 0.0197102 0)
(63.7514 0.0197906 0)
(63.7531 0.0198709 0)
(63.7548 0.0199511 0)
(63.7565 0.0200311 0)
(63.7582 0.020111 0)
(63.7599 0.0201908 0)
(63.7616 0.0202704 0)
(63.7632 0.0203499 0)
(63.7649 0.0204291 0)
(63.7666 0.0205083 0)
(63.7684 0.0205872 0)
(63.7701 0.0206659 0)
(63.7718 0.0207445 0)
(63.7735 0.0208229 0)
(63.7752 0.020901 0)
(63.7769 0.020979 0)
(63.7786 0.0210567 0)
(63.7803 0.0211342 0)
(63.7821 0.0212116 0)
(63.7838 0.0212887 0)
(63.7855 0.0213655 0)
(63.7872 0.0214422 0)
(63.789 0.0215186 0)
(63.7907 0.0215948 0)
(63.7924 0.0216707 0)
(63.7942 0.0217464 0)
(63.7959 0.0218219 0)
(63.7976 0.0218971 0)
(63.7994 0.0219721 0)
(63.8011 0.0220468 0)
(63.8029 0.0221213 0)
(63.8046 0.0221956 0)
(63.8064 0.0222696 0)
(63.8081 0.0223433 0)
(63.8099 0.0224168 0)
(63.8116 0.0224901 0)
(63.8134 0.0225631 0)
(63.8152 0.0226358 0)
(63.8169 0.0227083 0)
(63.8187 0.0227805 0)
(63.8204 0.0228525 0)
(63.8222 0.0229242 0)
(63.824 0.0229957 0)
(63.8258 0.0230669 0)
(63.8275 0.0231379 0)
(63.8293 0.0232086 0)
(63.8311 0.023279 0)
(63.8329 0.0233492 0)
(63.8347 0.0234191 0)
(63.8364 0.0234888 0)
(63.8382 0.0235582 0)
(63.84 0.0236274 0)
(63.8418 0.0236963 0)
(63.8436 0.0237649 0)
(63.8454 0.0238333 0)
(63.8472 0.0239015 0)
(63.849 0.0239693 0)
(63.8508 0.024037 0)
(63.8526 0.0241043 0)
(63.8544 0.0241715 0)
(63.8562 0.0242383 0)
(63.858 0.0243049 0)
(63.8598 0.0243713 0)
(63.8616 0.0244374 0)
(63.8635 0.0245033 0)
(63.8653 0.0245689 0)
(63.8671 0.0246342 0)
(63.8689 0.0246994 0)
(63.8707 0.0247642 0)
(63.8726 0.0248288 0)
(63.8744 0.0248932 0)
(63.8762 0.0249573 0)
(63.878 0.0250212 0)
(63.8799 0.0250848 0)
(63.8817 0.0251482 0)
(63.8835 0.0252114 0)
(63.8854 0.0252743 0)
(63.8872 0.0253369 0)
(63.8891 0.0253994 0)
(63.8909 0.0254615 0)
(63.8928 0.0255235 0)
(63.8946 0.0255852 0)
(63.8965 0.0256467 0)
(63.8983 0.0257079 0)
(63.9002 0.0257689 0)
(63.902 0.0258296 0)
(63.9039 0.0258902 0)
(63.9057 0.0259505 0)
(63.9076 0.0260105 0)
(63.9094 0.0260703 0)
(63.9113 0.0261299 0)
(63.9132 0.0261893 0)
(63.915 0.0262485 0)
(63.9169 0.0263074 0)
(63.9188 0.0263661 0)
(63.9207 0.0264245 0)
(63.9225 0.0264827 0)
(63.9244 0.0265408 0)
(63.9263 0.0265985 0)
(63.9282 0.0266561 0)
(63.93 0.0267134 0)
(63.9319 0.0267706 0)
(63.9338 0.0268275 0)
(63.9357 0.0268842 0)
(63.9376 0.0269407 0)
(63.9395 0.0269969 0)
(63.9414 0.027053 0)
(63.9433 0.0271088 0)
(63.9452 0.0271644 0)
(63.9471 0.0272198 0)
(63.949 0.0272749 0)
(63.9509 0.0273299 0)
(63.9528 0.0273847 0)
(63.9547 0.0274393 0)
(63.9566 0.0274937 0)
(63.9585 0.0275479 0)
(63.9604 0.0276019 0)
(63.9623 0.0276556 0)
(63.9642 0.0277091 0)
(63.9661 0.0277625 0)
(63.968 0.0278156 0)
(63.97 0.0278686 0)
(63.9719 0.0279214 0)
(63.9738 0.0279741 0)
(63.9757 0.0280266 0)
(63.9776 0.028079 0)
(63.9796 0.0281311 0)
(63.9815 0.028183 0)
(63.9834 0.0282346 0)
(63.9854 0.0282861 0)
(63.9873 0.0283374 0)
(63.9892 0.0283885 0)
(63.9912 0.0284396 0)
(63.9931 0.0284906 0)
(63.995 0.0285416 0)
(63.997 0.0285925 0)
(63.9989 0.0286433 0)
(64.0009 0.0286939 0)
(64.0028 0.0287444 0)
(64.0047 0.0287946 0)
(64.0067 0.0288447 0)
(64.0086 0.0288947 0)
(64.0106 0.0289447 0)
(64.0125 0.0289948 0)
(64.0145 0.0290449 0)
(64.0164 0.0290953 0)
(64.0184 0.0291458 0)
(64.0204 0.0291964 0)
(64.0223 0.0292473 0)
(64.0243 0.0292982 0)
(64.0262 0.0293494 0)
(64.0282 0.0294007 0)
(64.0302 0.0294524 0)
(64.0321 0.0295045 0)
(64.0341 0.0295571 0)
(64.0361 0.0296103 0)
(64.0381 0.0296643 0)
(64.04 0.0297191 0)
(64.042 0.0297749 0)
(64.044 0.0298318 0)
(64.046 0.0298899 0)
(64.0479 0.0299495 0)
(64.0499 0.0300106 0)
(64.0519 0.0300733 0)
(64.0539 0.0301376 0)
(64.0559 0.0302035 0)
(64.0579 0.0302706 0)
(64.0599 0.0303384 0)
(64.0619 0.0304064 0)
(64.0639 0.0304734 0)
(64.066 0.0305381 0)
(64.068 0.0305989 0)
(64.07 0.0306531 0)
(64.0722 0.0307 0)
(64.0739 0.0307314 0)
(64.077 0.0307636 0)
(51.2426 0.000493211 0)
(85.6457 0.00278353 0)
(72.8107 0.00515925 0)
(60.1745 0.0070689 0)
(59.6472 0.00867676 0)
(63.1781 0.0102198 0)
(64.6484 0.0117458 0)
(64.1625 0.0131993 0)
(63.5464 0.0145387 0)
(63.4564 0.0157638 0)
(63.6054 0.016892 0)
(63.6901 0.017935 0)
(63.6799 0.0188967 0)
(63.6524 0.0197793 0)
(63.6463 0.0205873 0)
(63.6535 0.0213268 0)
(63.6594 0.0220037 0)
(63.661 0.0226233 0)
(63.6613 0.02319 0)
(63.6623 0.0237082 0)
(63.6641 0.024182 0)
(63.6658 0.0246154 0)
(63.6674 0.025012 0)
(63.6689 0.0253749 0)
(63.6704 0.0257072 0)
(63.672 0.0260117 0)
(63.6735 0.0262907 0)
(63.6751 0.0265466 0)
(63.6766 0.0267816 0)
(63.6782 0.0269973 0)
(63.6797 0.0271956 0)
(63.6813 0.0273781 0)
(63.6828 0.027546 0)
(63.6844 0.0277008 0)
(63.6859 0.0278435 0)
(63.6875 0.0279753 0)
(63.6891 0.028097 0)
(63.6906 0.0282095 0)
(63.6922 0.0283137 0)
(63.6938 0.0284101 0)
(63.6953 0.0284996 0)
(63.6969 0.0285825 0)
(63.6985 0.0286596 0)
(63.7001 0.0287312 0)
(63.7017 0.0287978 0)
(63.7032 0.0288598 0)
(63.7048 0.0289176 0)
(63.7064 0.0289714 0)
(63.708 0.0290217 0)
(63.7096 0.0290686 0)
(63.7112 0.0291124 0)
(63.7128 0.0291533 0)
(63.7144 0.0291916 0)
(63.716 0.0292274 0)
(63.7176 0.0292609 0)
(63.7193 0.0292923 0)
(63.7209 0.0293217 0)
(63.7225 0.0293493 0)
(63.7241 0.0293752 0)
(63.7257 0.0293994 0)
(63.7274 0.0294222 0)
(63.729 0.0294435 0)
(63.7306 0.0294635 0)
(63.7323 0.0294823 0)
(63.7339 0.0294999 0)
(63.7356 0.0295165 0)
(63.7372 0.029532 0)
(63.7389 0.0295466 0)
(63.7405 0.0295603 0)
(63.7422 0.0295731 0)
(63.7438 0.0295852 0)
(63.7455 0.0295965 0)
(63.7471 0.0296071 0)
(63.7488 0.029617 0)
(63.7505 0.0296264 0)
(63.7521 0.0296351 0)
(63.7538 0.0296433 0)
(63.7555 0.0296509 0)
(63.7572 0.0296581 0)
(63.7588 0.0296648 0)
(63.7605 0.0296711 0)
(63.7622 0.029677 0)
(63.7639 0.0296824 0)
(63.7656 0.0296875 0)
(63.7673 0.0296923 0)