/*--------------------------------*- C++ -*----------------------------------*\
| =========                 |                                                 |
| \\      /  F ield         | OpenFOAM: The Open Source CFD Toolbox           |
|  \\    /   O peration     | Version:  2406                                  |
|   \\  /    A nd           | Website:  www.openfoam.com                      |
|    \\/     M anipulation  |                                                 |
\*---------------------------------------------------------------------------*/
FoamFile
{
    version     2.0;
    format      ascii;
    arch        "LSB;label=32;scalar=64";
    class       volScalarField;
    location    "0.1";
    object      p;
}
// * * * * * * * * * * * * * * * * * * * * * * * * * * * * * * * * * * * * * //

dimensions      [0 2 -2 0 0 0 0];

internalField   nonuniform List<scalar> 
250
(
102.841
102.81
102.78
102.749
102.719
102.688
102.657
102.627
102.596
102.566
102.535
102.504
102.474
102.443
102.412
102.382
102.351
102.321
102.29
102.259
102.229
102.198
102.167
102.137
102.106
102.076
102.045
102.014
101.984
101.953
101.922
101.892
101.861
101.831
101.8
101.769
101.739
101.708
101.678
101.647
101.616
101.586
101.555
101.524
101.494
101.463
101.433
101.402
101.371
101.34
102.841
102.81
102.78
102.749
102.719
102.688
102.657
102.627
102.596
102.566
102.535
102.504
102.474
102.443
102.412
102.382
102.351
102.321
102.29
102.259
102.229
102.198
102.167
102.137
102.106
102.076
102.045
102.014
101.984
101.953
101.922
101.892
101.861
101.831
101.8
101.769
101.739
101.708
101.678
101.647
101.616
101.586
101.555
101.524
101.494
101.463
101.433
101.402
101.371
101.34
102.841
102.81
102.78
102.749
102.719
102.688
102.657
102.627
102.596
102.566
102.535
102.504
102.474
102.443
102.412
102.382
102.351
102.321
102.29
102.259
102.229
102.198
102.167
102.137
102.106
102.076
102.045
102.014
101.984
101.953
101.922
101.892
101.861
101.831
101.8
101.769
101.739
101.708
101.678
101.647
101.616
101.586
101.555
101.524
101.494
101.463
101.433
101.402
101.371
101.34
102.841
102.81
102.78
102.749
102.719
102.688
102.657
102.627
102.596
102.566
102.535
102.504
102.474
102.443
102.412
102.382
102.351
102.321
102.29
102.259
102.229
102.198
102.167
102.137
102.106
102.076
102.045
102.014
101.984
101.953
101.922
101.892
101.861
101.831
101.8
101.769
101.739
101.708
101.678
101.647
101.616
101.586
101.555
101.524
101.494
101.463
101.433
101.402
101.371
101.34
102.841
102.811
102.78
102.749
102.719
102.688
102.657
102.627
102.596
102.566
102.535
102.504
102.474
102.443
102.412
102.382
102.351
102.321
102.29
102.259
102.229
102.198
102.168
102.137
102.106
102.076
102.045
102.014
101.984
101.953
101.923
101.892
101.861
101.831
101.8
101.769
101.739
101.708
101.678
101.647
101.616
101.586
101.555
101.524
101.494
101.463
101.433
101.402
101.371
101.34
)
;

boundaryField
{
    inlet
    {
        type            fixedValue;
        value           uniform 102.856;
    }
    outlet
    {
        type            fixedValue;
        value           uniform 101.325;
    }
    walls
    {
        type            zeroGradient;
    }
    frontAndBack
    {
        type            empty;
    }
}


// ************************************************************************* //
