/*--------------------------------*- C++ -*----------------------------------*\
| =========                 |                                                 |
| \\      /  F ield         | OpenFOAM: The Open Source CFD Toolbox           |
|  \\    /   O peration     | Version:  2406                                  |
|   \\  /    A nd           | Website:  www.openfoam.com                      |
|    \\/     M anipulation  |                                                 |
\*---------------------------------------------------------------------------*/
FoamFile
{
    version     2.0;
    format      ascii;
    arch        "LSB;label=32;scalar=64";
    class       surfaceScalarField;
    location    "0.1";
    object      phi;
}
// * * * * * * * * * * * * * * * * * * * * * * * * * * * * * * * * * * * * * //

dimensions      [0 3 -1 0 0 0 0];

oriented        oriented;

internalField   nonuniform List<scalar> 
445
(
1.01769e-05
-1.70986e-08
1.0196e-05
-1.90908e-08
1.02193e-05
-2.32758e-08
1.02394e-05
-2.01479e-08
1.02523e-05
-1.28989e-08
1.02592e-05
-6.89777e-09
1.02613e-05
-2.08864e-09
1.02585e-05
2.76677e-09
1.02532e-05
5.32431e-09
1.02494e-05
3.76115e-09
1.02496e-05
-1.61469e-10
1.02522e-05
-2.57284e-09
1.02539e-05
-1.70081e-09
1.0253e-05
8.69376e-10
1.02507e-05
2.27898e-09
1.02495e-05
1.21162e-09
1.02509e-05
-1.39731e-09
1.02543e-05
-3.40483e-09
1.02576e-05
-3.255e-09
1.02586e-05
-9.91665e-10
1.02565e-05
2.0106e-09
1.02525e-05
4.01999e-09
1.02485e-05
4.01029e-09
1.02465e-05
2.05491e-09
1.02474e-05
-9.79855e-10
1.02512e-05
-3.75546e-09
1.02562e-05
-4.97496e-09
1.02602e-05
-4.00959e-09
1.02614e-05
-1.22812e-09
1.02592e-05
2.16789e-09
1.02547e-05
4.58062e-09
1.02499e-05
4.77558e-09
1.02473e-05
2.59564e-09
1.02482e-05
-9.00283e-10
1.02519e-05
-3.69706e-09
1.02557e-05
-3.85112e-09
1.02568e-05
-1.1088e-09
1.02543e-05
2.5377e-09
1.02503e-05
4.03585e-09
1.02484e-05
1.86356e-09
1.02507e-05
-2.26437e-09
1.02552e-05
-4.51494e-09
1.02579e-05
-2.77586e-09
1.02574e-05
5.85147e-10
1.02563e-05
1.1038e-09
1.02597e-05
-3.41942e-09
1.0272e-05
-1.22499e-08
1.0294e-05
-2.20083e-08
1.03232e-05
-2.92661e-08
-3.86367e-08
2.04739e-05
8.52478e-10
2.04617e-05
-6.92626e-09
2.04559e-05
-1.74823e-08
2.04558e-05
-2.00177e-08
2.04591e-05
-1.62223e-08
2.04628e-05
-1.05571e-08
2.04639e-05
-3.25986e-09
2.04613e-05
5.43155e-09
2.04563e-05
1.03237e-08
2.04527e-05
7.32066e-09
2.0453e-05
-4.03253e-10
2.04559e-05
-5.54485e-09
2.04586e-05
-4.32807e-09
2.04587e-05
7.57751e-10
2.04567e-05
4.27838e-09
2.04548e-05
3.13138e-09
2.04549e-05
-1.58414e-09
2.04576e-05
-6.04239e-09
2.04612e-05
-6.92425e-09
2.04638e-05
-3.54533e-09
2.04637e-05
2.06494e-09
2.0461e-05
6.74537e-09
2.04569e-05
8.13784e-09
2.04533e-05
5.69585e-09
2.04517e-05
5.28149e-10
2.04531e-05
-5.13251e-09
2.04568e-05
-8.66942e-09
2.04612e-05
-8.39924e-09
2.04643e-05
-4.27685e-09
2.04645e-05
1.93003e-09
2.04618e-05
7.27987e-09
2.04576e-05
9.01407e-09
2.0454e-05
6.11429e-09
2.04531e-05
8.00695e-12
2.04551e-05
-5.65418e-09
2.04581e-05
-6.88335e-09
2.04596e-05
-2.57971e-09
2.04582e-05
3.96126e-09
2.04553e-05
6.90144e-09
2.04542e-05
2.91749e-09
2.0457e-05
-5.02206e-09
2.04619e-05
-9.41857e-09
2.04649e-05
-5.85072e-09
2.0464e-05
1.51001e-09
2.04607e-05
4.40049e-09
2.0457e-05
3.4371e-10
2.04532e-05
-8.46779e-09
2.04484e-05
-1.71979e-08
2.04427e-05
-2.35853e-08
-2.9984e-08
2.36049e-05
4.29207e-08
2.35651e-05
3.2941e-08
2.35252e-05
2.24406e-08
2.34954e-05
9.7208e-09
2.34792e-05
-4.05885e-11
2.34719e-05
-3.27742e-09
2.34692e-05
-5.61003e-10
2.34686e-05
6.06628e-09
2.34689e-05
1.0022e-08
2.34694e-05
6.85663e-09
2.34698e-05
-8.83976e-10
2.34707e-05
-6.35223e-09
2.34718e-05
-5.50368e-09
2.34728e-05
-2.49348e-10
2.34729e-05
4.18555e-09
2.34719e-05
4.20283e-09
2.34702e-05
6.22836e-11
2.34691e-05
-4.90155e-09
2.34693e-05
-7.162e-09
2.34711e-05
-5.28237e-09
2.34735e-05
-3.69821e-10
2.34754e-05
4.83595e-09
2.34758e-05
7.77866e-09
2.34742e-05
7.24624e-09
2.34713e-05
3.47783e-09
2.34681e-05
-1.94206e-09
2.3466e-05
-6.57887e-09
2.34658e-05
-8.26183e-09
2.34677e-05
-6.1108e-09
2.34706e-05
-9.68376e-10
2.34732e-05
4.66924e-09
2.34744e-05
7.84291e-09
2.34737e-05
6.76408e-09
2.34718e-05
1.92091e-09
2.34698e-05
-3.65899e-09
2.34688e-05
-5.8948e-09
2.34692e-05
-2.93877e-09
2.34703e-05
2.80725e-09
2.34714e-05
5.78136e-09
2.34721e-05
2.26542e-09
2.34724e-05
-5.31531e-09
2.34725e-05
-9.49428e-09
2.3472e-05
-5.40223e-09
2.34702e-05
3.34996e-09
2.34652e-05
9.37029e-09
2.34538e-05
1.17685e-08
2.343e-05
1.53644e-08
2.33924e-05
2.04237e-08
2.3348e-05
2.07762e-08
1.96376e-08
2.04671e-05
4.12371e-08
2.04677e-05
3.23386e-08
2.04648e-05
2.53516e-08
2.04598e-05
1.47812e-08
2.04548e-05
4.96419e-09
2.04512e-05
2.69389e-10
2.04505e-05
1.69229e-10
2.04538e-05
2.72432e-09
2.04593e-05
4.56252e-09
2.04631e-05
3.01083e-09
2.04631e-05
-8.31625e-10
2.04603e-05
-3.62211e-09
2.04581e-05
-3.24006e-09
2.04583e-05
-4.72068e-10
2.04604e-05
2.14804e-09
2.04619e-05
2.63617e-09
2.04612e-05
8.2772e-10
2.04581e-05
-1.8414e-09
2.04545e-05
-3.54695e-09
2.04525e-05
-3.27058e-09
2.04533e-05
-1.21287e-09
2.04567e-05
1.4818e-09
2.04609e-05
3.51803e-09
2.04641e-05
4.06253e-09
2.04647e-05
2.87234e-09
2.04624e-05
4.14458e-10
2.0458e-05
-2.24011e-09
2.04536e-05
-3.87064e-09
2.04512e-05
-3.66877e-09
2.04519e-05
-1.65978e-09
2.04554e-05
1.15707e-09
2.046e-05
3.27639e-09
2.04632e-05
3.50987e-09
2.04635e-05
1.66303e-09
2.04609e-05
-1.05062e-09
2.04575e-05
-2.57238e-09
2.04562e-05
-1.62905e-09
2.04581e-05
9.6697e-10
2.04613e-05
2.52679e-09
2.04626e-05
9.85511e-10
2.046e-05
-2.72946e-09
2.04553e-05
-4.83569e-09
2.04527e-05
-2.77955e-09
2.04541e-05
1.96498e-09
2.04578e-05
5.64916e-09
2.04607e-05
8.90904e-09
2.04608e-05
1.52466e-08
2.04579e-05
2.33287e-08
2.04512e-05
2.74519e-08
3.22895e-08
1.01714e-05
1.02037e-05
1.02291e-05
1.02438e-05
1.02488e-05
1.02491e-05
1.02492e-05
1.0252e-05
1.02565e-05
1.02595e-05
1.02587e-05
1.02551e-05
1.02518e-05
1.02514e-05
1.02535e-05
1.02562e-05
1.0257e-05
1.02551e-05
1.02516e-05
1.02483e-05
1.02471e-05
1.02486e-05
1.02521e-05
1.02562e-05
1.0259e-05
1.02595e-05
1.02572e-05
1.02533e-05
1.02497e-05
1.0248e-05
1.02492e-05
1.02525e-05
1.0256e-05
1.02576e-05
1.02566e-05
1.0254e-05
1.02524e-05
1.02533e-05
1.02559e-05
1.02569e-05
1.02541e-05
1.02493e-05
1.02465e-05
1.02485e-05
1.02541e-05
1.0263e-05
1.02783e-05
1.03016e-05
1.03291e-05
)
;

boundaryField
{
    inlet
    {
        type            calculated;
        value           nonuniform List<scalar> 5(-1.01598e-05 -2.04918e-05 -2.3647e-05 -2.04655e-05 -1.01301e-05);
    }
    outlet
    {
        type            calculated;
        value           nonuniform List<scalar> 5(1.03619e-05 2.0434e-05 2.32984e-05 2.04386e-05 1.03614e-05);
    }
    walls
    {
        type            calculated;
        value           uniform 0;
    }
    frontAndBack
    {
        type            empty;
    }
}


// ************************************************************************* //
