/*--------------------------------*- C++ -*----------------------------------*\
| =========                 |                                                 |
| \\      /  F ield         | OpenFOAM: The Open Source CFD Toolbox           |
|  \\    /   O peration     | Version:  2406                                  |
|   \\  /    A nd           | Website:  www.openfoam.com                      |
|    \\/     M anipulation  |                                                 |
\*---------------------------------------------------------------------------*/
FoamFile
{
    version     2.0;
    format      ascii;
    arch        "LSB;label=32;scalar=64";
    class       volVectorField;
    location    "0.1";
    object      U;
}
// * * * * * * * * * * * * * * * * * * * * * * * * * * * * * * * * * * * * * //

dimensions      [0 1 -1 0 0 0 0];

internalField   nonuniform List<vector> 
250
(
(0.0508428 -8.87008e-05 0)
(0.050924 -9.0833e-05 0)
(0.0510321 -9.88267e-05 0)
(0.0511478 -7.92268e-05 0)
(0.0512369 -4.66905e-05 0)
(0.0512845 -2.26134e-05 0)
(0.051305 -6.47775e-06 0)
(0.0513023 7.50052e-06 0)
(0.05128 1.49462e-05 0)
(0.0512547 1.05395e-05 0)
(0.0512446 -1.96294e-07 0)
(0.0512529 -6.38332e-06 0)
(0.051266 -3.48092e-06 0)
(0.0512691 3.4574e-06 0)
(0.0512601 6.42187e-06 0)
(0.0512494 2.3553e-06 0)
(0.0512489 -5.2547e-06 0)
(0.0512617 -1.01403e-05 0)
(0.0512802 -8.31699e-06 0)
(0.0512923 -7.80024e-07 0)
(0.0512901 7.81771e-06 0)
(0.0512741 1.24803e-05 0)
(0.0512522 1.07656e-05 0)
(0.0512354 3.65291e-06 0)
(0.0512321 -5.66395e-06 0)
(0.0512444 -1.31145e-05 0)
(0.0512677 -1.5111e-05 0)
(0.0512921 -1.04824e-05 0)
(0.0513064 -1.1432e-06 0)
(0.0513043 8.79498e-06 0)
(0.0512864 1.47255e-05 0)
(0.051261 1.36519e-05 0)
(0.0512408 5.98196e-06 0)
(0.051236 -4.55318e-06 0)
(0.0512485 -1.20447e-05 0)
(0.0512696 -1.13614e-05 0)
(0.0512837 -2.54354e-06 0)
(0.0512801 8.16231e-06 0)
(0.0512615 1.22656e-05 0)
(0.0512443 5.98059e-06 0)
(0.0512448 -5.54074e-06 0)
(0.0512638 -1.18722e-05 0)
(0.0512846 -7.54305e-06 0)
(0.0512905 5.69352e-07 0)
(0.0512823 -4.44982e-07 0)
(0.0512815 -1.86018e-05 0)
(0.0513219 -5.43318e-05 0)
(0.0514145 -9.45436e-05 0)
(0.0515534 -0.000124914 0)
(0.0517098 -0.000161432 0)
(0.102436 -0.00011961 0)
(0.102357 -0.000143278 0)
(0.102273 -0.000178194 0)
(0.102262 -0.00015977 0)
(0.102289 -0.000108008 0)
(0.102306 -6.07875e-05 0)
(0.102317 -1.98139e-05 0)
(0.102315 2.08278e-05 0)
(0.102295 4.33535e-05 0)
(0.102271 3.12983e-05 0)
(0.10226 -7.27856e-07 0)
(0.102269 -2.12382e-05 0)
(0.102287 -1.49322e-05 0)
(0.102297 6.00248e-06 0)
(0.102292 1.83534e-05 0)
(0.102279 1.04554e-05 0)
(0.102271 -1.06993e-05 0)
(0.102278 -2.78638e-05 0)
(0.102295 -2.77256e-05 0)
(0.102313 -9.79079e-06 0)
(0.102322 1.51145e-05 0)
(0.102316 3.27586e-05 0)
(0.102297 3.40658e-05 0)
(0.102276 1.88537e-05 0)
(0.10226 -6.04529e-06 0)
(0.102258 -2.97414e-05 0)
(0.102271 -4.11562e-05 0)
(0.102294 -3.45339e-05 0)
(0.102314 -1.22691e-05 0)
(0.102325 1.59925e-05 0)
(0.10232 3.70084e-05 0)
(0.102301 4.00644e-05 0)
(0.102279 2.31302e-05 0)
(0.102265 -5.44329e-06 0)
(0.102267 -2.90541e-05 0)
(0.102281 -3.1429e-05 0)
(0.102295 -9.83157e-06 0)
(0.102297 1.97138e-05 0)
(0.102285 3.21845e-05 0)
(0.102272 1.45229e-05 0)
(0.102274 -1.95603e-05 0)
(0.102295 -3.85785e-05 0)
(0.10232 -2.46828e-05 0)
(0.102329 2.98297e-06 0)
(0.102315 7.69177e-06 0)
(0.10229 -2.80339e-05 0)
(0.102284 -9.60027e-05 0)
(0.102273 -0.000169739 0)
(0.102217 -0.000224322 0)
(0.102168 -0.000284173 0)
(0.118174 0.000123562 0)
(0.117969 7.33819e-05 0)
(0.1177 1.47392e-05 0)
(0.117521 -2.80507e-05 0)
(0.117428 -4.45239e-05 0)
(0.11737 -3.86189e-05 0)
(0.117345 -1.02256e-05 0)
(0.117342 3.2513e-05 0)
(0.117345 5.77105e-05 0)
(0.117347 4.06292e-05 0)
(0.117347 -2.84369e-06 0)
(0.117348 -3.30245e-05 0)
(0.117355 -2.76293e-05 0)
(0.117364 1.08742e-06 0)
(0.117368 2.34727e-05 0)
(0.117365 2.03806e-05 0)
(0.117355 -4.40953e-06 0)
(0.117345 -3.09588e-05 0)
(0.117342 -3.99028e-05 0)
(0.117348 -2.51128e-05 0)
(0.117361 4.64404e-06 0)
(0.117375 3.27398e-05 0)
(0.117382 4.51812e-05 0)
(0.117379 3.68491e-05 0)
(0.117366 1.15015e-05 0)
(0.117347 -1.99619e-05 0)
(0.117331 -4.32424e-05 0)
(0.117325 -4.73888e-05 0)
(0.11733 -2.97068e-05 0)
(0.117345 2.44212e-06 0)
(0.117362 3.36796e-05 0)
(0.117373 4.77875e-05 0)
(0.117374 3.67313e-05 0)
(0.117365 5.88808e-06 0)
(0.117352 -2.58515e-05 0)
(0.117342 -3.58922e-05 0)
(0.117342 -1.57029e-05 0)
(0.117349 1.8627e-05 0)
(0.117357 3.52629e-05 0)
(0.117361 1.4239e-05 0)
(0.117361 -2.93719e-05 0)
(0.11736 -5.36223e-05 0)
(0.117362 -3.21206e-05 0)
(0.117362 1.31441e-05 0)
(0.117346 3.85557e-05 0)
(0.117303 3.33528e-05 0)
(0.117236 1.99713e-05 0)
(0.117092 9.7275e-06 0)
(0.116824 -6.67206e-06 0)
(0.116565 -2.71472e-05 0)
(0.102348 0.000312986 0)
(0.102354 0.000253809 0)
(0.102321 0.000198124 0)
(0.102302 0.000116524 0)
(0.102289 4.1384e-05 0)
(0.102262 2.80502e-06 0)
(0.102247 3.16842e-06 0)
(0.102257 2.55648e-05 0)
(0.102284 4.02176e-05 0)
(0.10231 2.65887e-05 0)
(0.102318 -5.76647e-06 0)
(0.102308 -2.90823e-05 0)
(0.102294 -2.60258e-05 0)
(0.10229 -3.48357e-06 0)
(0.102298 1.74502e-05 0)
(0.102309 2.0553e-05 0)
(0.10231 4.98697e-06 0)
(0.102298 -1.6854e-05 0)
(0.102279 -2.99955e-05 0)
(0.102263 -2.63517e-05 0)
(0.102261 -8.2362e-06 0)
(0.102274 1.43661e-05 0)
(0.102296 3.05827e-05 0)
(0.102317 3.36822e-05 0)
(0.102326 2.23028e-05 0)
(0.10232 1.01009e-06 0)
(0.102301 -2.07927e-05 0)
(0.102276 -3.31668e-05 0)
(0.102257 -2.98802e-05 0)
(0.102254 -1.19147e-05 0)
(0.102267 1.18128e-05 0)
(0.102291 2.8696e-05 0)
(0.102313 2.92536e-05 0)
(0.102321 1.27879e-05 0)
(0.102312 -9.88613e-06 0)
(0.102293 -2.17894e-05 0)
(0.10228 -1.29773e-05 0)
(0.102284 8.79661e-06 0)
(0.102301 2.12728e-05 0)
(0.102314 7.78007e-06 0)
(0.102309 -2.28705e-05 0)
(0.102287 -3.97272e-05 0)
(0.102268 -2.13666e-05 0)
(0.102267 1.78749e-05 0)
(0.102279 4.96426e-05 0)
(0.102293 7.60058e-05 0)
(0.102315 0.000123031 0)
(0.102319 0.000182007 0)
(0.102263 0.000211005 0)
(0.102198 0.00023634 0)
(0.0507515 0.000158201 0)
(0.0509275 0.000127348 0)
(0.0510849 0.000103184 0)
(0.0511897 6.33388e-05 0)
(0.0512401 2.43629e-05 0)
(0.051247 3.51577e-06 0)
(0.0512437 6.46102e-07 0)
(0.0512512 7.02573e-06 0)
(0.0512717 1.13423e-05 0)
(0.0512927 6.81899e-06 0)
(0.0512982 -3.54304e-06 0)
(0.0512851 -1.09532e-05 0)
(0.0512657 -9.71568e-06 0)
(0.0512559 -1.78734e-06 0)
(0.0512614 6.08517e-06 0)
(0.0512753 8.2545e-06 0)
(0.0512849 3.7342e-06 0)
(0.0512818 -3.91994e-06 0)
(0.0512668 -9.72533e-06 0)
(0.0512482 -1.02822e-05 0)
(0.0512362 -5.40917e-06 0)
(0.0512373 2.20629e-06 0)
(0.0512511 8.99945e-06 0)
(0.0512717 1.21935e-05 0)
(0.0512902 1.03589e-05 0)
(0.0512985 4.07883e-06 0)
(0.0512932 -3.95384e-06 0)
(0.0512764 -1.01221e-05 0)
(0.0512558 -1.13963e-05 0)
(0.0512417 -7.02268e-06 0)
(0.051241 7.11131e-07 0)
(0.0512537 7.62178e-06 0)
(0.0512725 9.82343e-06 0)
(0.0512863 5.95417e-06 0)
(0.051287 -1.22403e-06 0)
(0.0512758 -6.10173e-06 0)
(0.0512638 -4.5479e-06 0)
(0.0512627 1.84052e-06 0)
(0.0512739 6.0005e-06 0)
(0.0512845 2.00885e-06 0)
(0.0512793 -7.68792e-06 0)
(0.0512578 -1.29725e-05 0)
(0.0512368 -6.55932e-06 0)
(0.0512344 6.86241e-06 0)
(0.0512524 1.89058e-05 0)
(0.0512855 3.31025e-05 0)
(0.0513487 6.14633e-05 0)
(0.0514524 9.70065e-05 0)
(0.0515873 0.000117869 0)
(0.0517228 0.000140284 0)
)
;

boundaryField
{
    inlet
    {
        type            zeroGradient;
    }
    outlet
    {
        type            zeroGradient;
    }
    walls
    {
        type            noSlip;
    }
    frontAndBack
    {
        type            empty;
    }
}


// ************************************************************************* //
