/*--------------------------------*- C++ -*----------------------------------*\
| =========                 |                                                 |
| \\      /  F ield         | OpenFOAM: The Open Source CFD Toolbox           |
|  \\    /   O peration     | Version:  2406                                  |
|   \\  /    A nd           | Website:  www.openfoam.com                      |
|    \\/     M anipulation  |                                                 |
\*---------------------------------------------------------------------------*/
FoamFile
{
    version     2.0;
    format      ascii;
    arch        "LSB;label=32;scalar=64";
    class       surfaceScalarField;
    location    "0.75";
    object      alphaPhi0.air;
}
// * * * * * * * * * * * * * * * * * * * * * * * * * * * * * * * * * * * * * //

dimensions      [0 3 -1 0 0 0 0];

oriented        oriented;

internalField   nonuniform List<scalar> 
12225
(
0.49614
7.92836e-07
0.496135
5.85767e-06
0.496127
7.45656e-06
0.496122
5.6614e-06
0.496117
4.56035e-06
0.496112
5.08847e-06
0.496106
5.95049e-06
0.4961
5.91182e-06
0.496094
6.03368e-06
0.496088
5.911e-06
0.496082
5.77133e-06
0.496077
5.38025e-06
0.496072
5.16447e-06
0.496067
5.02945e-06
0.496062
4.92306e-06
0.496057
4.99434e-06
0.496052
5.2237e-06
0.496046
5.61183e-06
0.49604
5.80315e-06
0.496035
5.60344e-06
0.496029
5.42602e-06
0.496024
5.30769e-06
0.496019
5.08957e-06
0.496014
5.03782e-06
0.496009
5.16847e-06
0.496003
5.61111e-06
0.495997
6.33618e-06
0.49599
6.59127e-06
0.495983
6.48535e-06
0.495977
6.28556e-06
0.495972
5.6416e-06
0.495967
4.77467e-06
0.495962
4.29658e-06
0.495958
4.30606e-06
0.495954
4.57239e-06
0.495949
4.96798e-06
0.495943
5.19586e-06
0.495938
5.08341e-06
0.495934
4.8639e-06
0.495929
4.69364e-06
0.495924
4.50896e-06
0.49592
4.35033e-06
0.495916
4.35964e-06
0.495911
4.5364e-06
0.495906
4.758e-06
0.495901
4.93561e-06
0.495896
5.01086e-06
0.495891
4.91601e-06
0.495887
4.66751e-06
0.495882
4.45e-06
0.495878
4.49159e-06
0.495873
4.82806e-06
0.495868
5.27038e-06
0.495862
5.60687e-06
0.495856
5.77968e-06
0.495851
5.80803e-06
0.495845
5.69448e-06
0.495839
5.52538e-06
0.495834
5.46963e-06
0.495828
5.59476e-06
0.495822
5.83274e-06
0.495816
6.08554e-06
0.49581
6.25313e-06
0.495804
6.31802e-06
0.495797
6.41604e-06
0.495791
6.62303e-06
0.495784
6.74379e-06
0.495777
6.56821e-06
0.495771
6.23091e-06
0.495765
6.06101e-06
0.495759
6.1661e-06
0.495753
6.37766e-06
0.495746
6.50454e-06
0.49574
6.469e-06
0.495733
6.31626e-06
0.495727
6.19517e-06
0.495721
6.21544e-06
0.495715
6.27906e-06
0.495708
6.19726e-06
0.495702
5.97644e-06
0.495697
5.81449e-06
0.495691
5.81771e-06
0.495685
5.88802e-06
0.495679
5.90045e-06
0.495673
5.80677e-06
0.495668
5.61087e-06
0.495662
5.40561e-06
0.495657
5.34229e-06
0.495651
5.41208e-06
0.495646
5.40322e-06
0.495641
5.21992e-06
0.495636
5.05025e-06
0.495631
5.07822e-06
0.495625
5.23626e-06
0.49562
5.36823e-06
0.495615
5.42625e-06
0.495609
5.3883e-06
0.495604
5.20275e-06
0.495599
4.93127e-06
0.495594
4.77498e-06
0.495589
4.8587e-06
0.495584
5.07352e-06
0.495579
5.21593e-06
0.495574
5.1798e-06
0.495569
4.98851e-06
0.495564
4.75064e-06
0.49556
4.5915e-06
0.495555
4.59038e-06
0.49555
4.72981e-06
0.495545
4.8946e-06
0.495541
4.93951e-06
0.495536
4.80701e-06
0.495531
4.60921e-06
0.495527
4.52319e-06
0.495522
4.57671e-06
0.495517
4.63531e-06
0.495513
4.6215e-06
0.495508
4.59978e-06
0.495504
4.58465e-06
0.495499
4.45969e-06
0.495495
4.22086e-06
0.495491
4.09909e-06
0.495487
4.26702e-06
0.495482
4.54438e-06
0.495477
4.60442e-06
0.495473
4.41013e-06
0.495469
4.24375e-06
0.495464
4.29677e-06
0.49546
4.42031e-06
0.495456
4.38267e-06
0.495451
4.23927e-06
0.495447
4.30057e-06
0.495442
4.69693e-06
0.495437
5.14953e-06
0.495432
5.25487e-06
0.495427
4.93102e-06
0.495423
4.5113e-06
0.495418
4.39898e-06
0.495413
4.68812e-06
0.495408
5.12467e-06
0.495403
5.3723e-06
0.495398
5.31413e-06
0.495393
5.11704e-06
0.495387
5.02858e-06
0.495382
5.12142e-06
0.495377
5.248e-06
0.495372
5.26194e-06
0.495367
5.19402e-06
0.495361
5.1949e-06
0.495356
5.31877e-06
0.495351
5.45207e-06
0.495345
5.44655e-06
0.49534
5.28085e-06
0.495335
5.07128e-06
0.49533
4.95279e-06
0.495325
4.98265e-06
0.49532
5.14607e-06
0.495314
5.37997e-06
0.495309
5.57322e-06
0.495303
5.58298e-06
0.495298
5.35499e-06
0.495293
4.99891e-06
0.495288
4.7141e-06
0.495284
4.61115e-06
0.495279
4.63978e-06
0.495274
4.67014e-06
0.49527
4.64278e-06
0.495265
4.62345e-06
0.49526
4.68149e-06
0.495256
4.7516e-06
0.495251
4.67471e-06
0.495247
4.40014e-06
0.495242
4.06536e-06
0.495239
3.81953e-06
0.495235
3.65684e-06
0.495231
3.51985e-06
0.495228
3.44416e-06
0.495225
3.4625e-06
0.495221
3.46895e-06
0.495218
3.31206e-06
0.495215
3.00027e-06
0.495212
2.7038e-06
0.49521
2.55364e-06
0.495207
2.50204e-06
0.495205
2.38527e-06
0.495203
2.11524e-06
0.495201
1.79431e-06
0.495199
1.61125e-06
0.495197
1.63524e-06
0.495196
1.71745e-06
0.495194
1.63925e-06
0.495193
1.34321e-06
0.495192
9.73467e-07
0.495191
7.47163e-07
0.49519
7.59877e-07
0.495189
8.643e-07
0.495189
8.14094e-07
0.495188
5.55249e-07
0.495188
3.21527e-07
0.495187
3.45944e-07
0.495187
5.60503e-07
0.495186
6.88275e-07
0.495186
5.874e-07
0.495185
3.97881e-07
0.495185
3.00704e-07
0.495185
3.23782e-07
0.495184
3.63348e-07
0.495184
3.21148e-07
0.495184
2.69441e-07
0.495183
2.77276e-07
0.495183
3.15802e-07
0.495183
3.40981e-07
0.495182
3.81182e-07
0.495182
5.07944e-07
0.495181
6.58919e-07
0.49518
6.74172e-07
0.49518
5.38537e-07
0.495179
3.91797e-07
0.495179
3.40408e-07
0.495179
3.11747e-07
0.495179
2.19997e-07
0.495179
7.98704e-08
0.495179
-3.64122e-08
0.495179
-1.1997e-07
0.495179
-2.11415e-07
0.495179
-2.44656e-07
0.495179
-1.47441e-07
0.495179
1.46828e-08
0.495179
1.31989e-07
0.495179
2.04571e-07
0.495179
3.04094e-07
0.495178
4.09593e-07
0.495178
4.37089e-07
0.495177
3.80532e-07
0.495177
2.99883e-07
0.495177
2.62898e-07
0.495177
2.49871e-07
0.495176
2.21081e-07
0.495176
2.06381e-07
0.495176
2.637e-07
0.495176
3.47124e-07
0.495175
3.43573e-07
0.495175
2.31472e-07
0.495175
1.14037e-07
0.495175
8.23063e-08
0.495175
9.59399e-08
0.495175
8.35436e-08
0.495175
6.20436e-08
0.495175
1.9901e-08
1.09439e-07
0.496146
9.05435e-08
0.496151
9.31289e-07
0.496157
2.18086e-06
0.496159
2.78985e-06
0.496161
2.57274e-06
0.496165
1.84692e-06
0.496169
1.37215e-06
0.496174
1.61927e-06
0.496178
1.56994e-06
0.496182
1.52519e-06
0.496186
2.35269e-06
0.496188
2.91579e-06
0.496191
2.87772e-06
0.496193
2.72392e-06
0.496195
2.80685e-06
0.496197
3.01734e-06
0.496199
2.88229e-06
0.496202
2.69282e-06
0.496205
2.87535e-06
0.496208
3.03695e-06
0.49621
2.95718e-06
0.496212
3.09348e-06
0.496214
3.03559e-06
0.496217
2.53278e-06
0.49622
2.16691e-06
0.496224
1.77691e-06
0.496228
1.7196e-06
0.496233
1.96989e-06
0.496237
2.20704e-06
0.496241
2.53219e-06
0.496244
3.05051e-06
0.496245
3.35477e-06
0.496246
3.30039e-06
0.496247
3.15284e-06
0.496249
2.81734e-06
0.496252
2.26398e-06
0.496255
1.95165e-06
0.496258
2.04772e-06
0.496261
2.20853e-06
0.496263
2.2462e-06
0.496265
2.28634e-06
0.496267
2.42874e-06
0.496269
2.56327e-06
0.496271
2.53396e-06
0.496273
2.36014e-06
0.496276
2.2518e-06
0.496279
2.37454e-06
0.496281
2.68015e-06
0.496283
3.00737e-06
0.496284
3.16837e-06
0.496285
3.02801e-06
0.496288
2.63821e-06
0.496291
2.19981e-06
0.496294
1.88971e-06
0.496298
1.75407e-06
0.496302
1.77861e-06
0.496306
1.95197e-06
0.496309
2.23943e-06
0.496312
2.57556e-06
0.496315
2.80337e-06
0.496318
2.75013e-06
0.496322
2.48641e-06
0.496326
2.30138e-06
0.49633
2.32579e-06
0.496334
2.43559e-06
0.496338
2.53399e-06
0.496342
2.64759e-06
0.496346
2.75424e-06
0.496349
2.77358e-06
0.496353
2.70431e-06
0.496356
2.60175e-06
0.49636
2.4889e-06
0.496364
2.41058e-06
0.496368
2.43469e-06
0.496372
2.51064e-06
0.496376
2.49521e-06
0.496379
2.35757e-06
0.496383
2.25242e-06
0.496387
2.29737e-06
0.496391
2.4439e-06
0.496394
2.57686e-06
0.496397
2.60961e-06
0.496401
2.5049e-06
0.496404
2.35522e-06
0.496408
2.36616e-06
0.496411
2.58077e-06
0.496413
2.75516e-06
0.496416
2.68876e-06
0.496419
2.50876e-06
0.496422
2.42509e-06
0.496425
2.42782e-06
0.496427
2.43333e-06
0.49643
2.47814e-06
0.496433
2.55875e-06
0.496435
2.53836e-06
0.496438
2.40058e-06
0.496442
2.35281e-06
0.496444
2.51184e-06
0.496446
2.70094e-06
0.496449
2.69836e-06
0.496451
2.5379e-06
0.496454
2.399e-06
0.496456
2.37151e-06
0.496459
2.42348e-06
0.496462
2.48687e-06
0.496464
2.51797e-06
0.496466
2.52683e-06
0.496468
2.56787e-06
0.49647
2.67903e-06
0.496472
2.81661e-06
0.496474
2.8615e-06
0.496476
2.71126e-06
0.496478
2.40399e-06
0.496481
2.17537e-06
0.496483
2.27019e-06
0.496485
2.63197e-06
0.496487
2.91861e-06
0.496489
2.89621e-06
0.49649
2.6742e-06
0.496492
2.44143e-06
0.496494
2.20705e-06
0.496497
1.9801e-06
0.496499
1.96934e-06
0.496501
2.30972e-06
0.496503
2.72057e-06
0.496505
2.7513e-06
0.496507
2.35607e-06
0.496509
1.97099e-06
0.496511
1.96666e-06
0.496513
2.23293e-06
0.496515
2.38916e-06
0.496517
2.2908e-06
0.49652
2.16909e-06
0.496523
2.26596e-06
0.496525
2.50789e-06
0.496528
2.59958e-06
0.49653
2.39392e-06
0.496532
2.06877e-06
0.496535
1.91668e-06
0.496538
2.04617e-06
0.496541
2.31094e-06
0.496544
2.47679e-06
0.496547
2.43875e-06
0.496549
2.29127e-06
0.496552
2.24165e-06
0.496555
2.40392e-06
0.496558
2.66173e-06
0.49656
2.79763e-06
0.496563
2.73893e-06
0.496565
2.60681e-06
0.496568
2.54134e-06
0.496571
2.56888e-06
0.496574
2.65062e-06
0.496576
2.75979e-06
0.496578
2.86859e-06
0.49658
2.90337e-06
0.496583
2.81728e-06
0.496585
2.6722e-06
0.496588
2.61382e-06
0.496591
2.69968e-06
0.496594
2.80591e-06
0.496596
2.75164e-06
0.496598
2.5159e-06
0.4966
2.27722e-06
0.496603
2.22346e-06
0.496605
2.35239e-06
0.496607
2.47912e-06
0.496609
2.46294e-06
0.496612
2.36897e-06
0.496614
2.36788e-06
0.496616
2.50087e-06
0.496618
2.62222e-06
0.49662
2.59818e-06
0.496621
2.47513e-06
0.496622
2.36197e-06
0.496624
2.26064e-06
0.496625
2.14235e-06
0.496626
2.08169e-06
0.496627
2.17816e-06
0.496628
2.37855e-06
0.496629
2.51062e-06
0.496629
2.49876e-06
0.496629
2.45565e-06
0.496629
2.53873e-06
0.496629
2.74817e-06
0.496628
2.89698e-06
0.496627
2.80105e-06
0.496626
2.48964e-06
0.496626
2.19684e-06
0.496625
2.1253e-06
0.496625
2.25408e-06
0.496624
2.39925e-06
0.496622
2.40501e-06
0.496621
2.28158e-06
0.496619
2.20665e-06
0.496618
2.35036e-06
0.496616
2.65043e-06
0.496614
2.82204e-06
0.496611
2.68495e-06
0.496609
2.4009e-06
0.496607
2.26138e-06
0.496606
2.31564e-06
0.496604
2.36617e-06
0.496602
2.29396e-06
0.4966
2.19761e-06
0.496598
2.21318e-06
0.496596
2.32405e-06
0.496594
2.41295e-06
0.496592
2.45826e-06
0.49659
2.53676e-06
0.496587
2.66761e-06
0.496585
2.73704e-06
0.496583
2.64799e-06
0.496581
2.49348e-06
0.496579
2.45392e-06
0.496577
2.53022e-06
0.496575
2.54118e-06
0.496573
2.39831e-06
0.496571
2.23459e-06
0.496569
2.18128e-06
0.496567
2.19477e-06
0.496565
2.1852e-06
0.496563
2.18291e-06
0.496561
2.22847e-06
0.496558
2.24402e-06
0.496556
2.18495e-06
0.496554
2.14755e-06
0.496551
2.20122e-06
0.496549
2.2503e-06
0.496547
2.18828e-06
0.496545
2.09074e-06
0.496544
2.10778e-06
0.496542
2.23208e-06
0.49654
2.33104e-06
0.496538
2.33161e-06
0.496536
2.29149e-06
0.496534
2.2703e-06
0.496532
2.23782e-06
0.49653
2.15127e-06
0.496528
2.06862e-06
0.496526
2.09085e-06
0.496525
2.20155e-06
0.496523
2.26565e-06
0.49652
2.22386e-06
0.496518
2.17993e-06
0.496516
2.21189e-06
0.496514
2.2656e-06
0.496512
2.2375e-06
0.49651
2.30497e-06
2.1787e-06
0.496142
5.4561e-08
0.496143
-6.49889e-07
0.496145
2.58239e-07
0.496146
1.66544e-06
0.496146
2.51351e-06
0.496145
3.39435e-06
0.496143
3.66654e-06
0.496141
3.27752e-06
0.496139
2.94942e-06
0.496138
2.6156e-06
0.496139
2.03727e-06
0.49614
1.61605e-06
0.496141
1.7863e-06
0.496142
1.99794e-06
0.496143
1.7639e-06
0.496144
1.7931e-06
0.496145
2.01417e-06
0.496146
1.69389e-06
0.496148
1.13629e-06
0.49615
1.09242e-06
0.496151
1.30766e-06
0.496153
1.37497e-06
0.496154
1.79767e-06
0.496154
2.46122e-06
0.496154
2.95621e-06
0.496152
3.04813e-06
0.496151
2.6639e-06
0.496151
2.10255e-06
0.496152
1.81405e-06
0.496152
1.68453e-06
0.496154
1.42823e-06
0.496156
1.26439e-06
0.496158
1.44712e-06
0.496159
1.8325e-06
0.49616
2.26318e-06
0.49616
2.58447e-06
0.496159
2.71142e-06
0.496158
2.71276e-06
0.496158
2.64936e-06
0.496157
2.52198e-06
0.496157
2.3426e-06
0.496158
2.2166e-06
0.496158
2.24205e-06
0.496158
2.31569e-06
0.496158
2.19916e-06
0.496159
1.84835e-06
0.49616
1.54412e-06
0.496161
1.57189e-06
0.496162
1.93988e-06
0.496162
2.4148e-06
0.496163
2.75546e-06
0.496162
2.90159e-06
0.496162
2.92755e-06
0.496161
2.87255e-06
0.49616
2.70656e-06
0.496159
2.49133e-06
0.496159
2.40235e-06
0.496158
2.51549e-06
0.496158
2.72558e-06
0.496158
2.85081e-06
0.496158
2.76044e-06
0.496158
2.52897e-06
0.496158
2.4175e-06
0.496158
2.51851e-06
0.496158
2.58194e-06
0.496158
2.40496e-06
0.496158
2.17577e-06
0.496159
2.19806e-06
0.496159
2.4643e-06
0.496159
2.71004e-06
0.496159
2.74605e-06
0.496159
2.59992e-06
0.496159
2.46254e-06
0.496159
2.52213e-06
0.496158
2.75275e-06
0.496158
2.89449e-06
0.496158
2.75321e-06
0.496157
2.46285e-06
0.496157
2.29835e-06
0.496158
2.32453e-06
0.496158
2.38776e-06
0.496158
2.35934e-06
0.496158
2.22605e-06
0.496159
2.05346e-06
0.496159
1.99118e-06
0.496159
2.14961e-06
0.49616
2.373e-06
0.49616
2.35758e-06
0.496161
2.07998e-06
0.496161
1.84791e-06
0.496162
1.86344e-06
0.496162
2.01781e-06
0.496162
2.15862e-06
0.496163
2.25031e-06
0.496163
2.23556e-06
0.496163
2.04323e-06
0.496164
1.78768e-06
0.496165
1.7189e-06
0.496166
1.90953e-06
0.496166
2.16597e-06
0.496166
2.283e-06
0.496166
2.22042e-06
0.496167
2.05071e-06
0.496167
1.87676e-06
0.496168
1.79648e-06
0.496169
1.85158e-06
0.496169
1.99444e-06
0.49617
2.13052e-06
0.49617
2.18786e-06
0.496171
2.14857e-06
0.496172
2.04508e-06
0.496172
1.91608e-06
0.496173
1.76929e-06
0.496174
1.64721e-06
0.496174
1.68621e-06
0.496175
1.96029e-06
0.496176
2.27806e-06
0.496176
2.33424e-06
0.496177
2.10566e-06
0.496177
1.8809e-06
0.496178
1.85494e-06
0.496178
1.92519e-06
0.496178
1.98028e-06
0.496178
2.1225e-06
0.496178
2.42141e-06
0.496178
2.64935e-06
0.496178
2.5183e-06
0.496178
2.1203e-06
0.496178
1.90378e-06
0.496178
2.17349e-06
0.496178
2.73554e-06
0.496177
3.11536e-06
0.496176
3.059e-06
0.496175
2.73683e-06
0.496175
2.48818e-06
0.496176
2.45199e-06
0.496176
2.50374e-06
0.496175
2.48101e-06
0.496175
2.36683e-06
0.496174
2.25891e-06
0.496175
2.22772e-06
0.496175
2.24417e-06
0.496175
2.21177e-06
0.496175
2.05864e-06
0.496176
1.84275e-06
0.496176
1.73161e-06
0.496177
1.82362e-06
0.496178
2.02348e-06
0.496179
2.14597e-06
0.496179
2.11338e-06
0.49618
1.99448e-06
0.49618
1.88428e-06
0.496181
1.83033e-06
0.496182
1.86018e-06
0.496183
2.00149e-06
0.496183
2.22312e-06
0.496184
2.4036e-06
0.496184
2.42001e-06
0.496184
2.29045e-06
0.496185
2.17303e-06
0.496186
2.19549e-06
0.496186
2.30869e-06
0.496186
2.35032e-06
0.496186
2.24639e-06
0.496186
2.10633e-06
0.496187
2.10259e-06
0.496187
2.26625e-06
0.496187
2.44733e-06
0.496187
2.4939e-06
0.496187
2.43132e-06
0.496187
2.39873e-06
0.496187
2.43374e-06
0.496187
2.42819e-06
0.496187
2.3186e-06
0.496187
2.17703e-06
0.496188
2.06447e-06
0.496188
1.93843e-06
0.496188
1.77486e-06
0.496189
1.67921e-06
0.496189
1.76618e-06
0.49619
1.98657e-06
0.49619
2.15953e-06
0.49619
2.16138e-06
0.496191
2.04796e-06
0.496192
1.98425e-06
0.496193
2.05388e-06
0.496193
2.15458e-06
0.496194
2.1124e-06
0.496194
1.89378e-06
0.496194
1.6537e-06
0.496195
1.57646e-06
0.496196
1.71456e-06
0.496196
1.9564e-06
0.496196
2.11849e-06
0.496196
2.1167e-06
0.496197
2.07434e-06
0.496197
2.18808e-06
0.496198
2.4498e-06
0.496198
2.61673e-06
0.496197
2.52287e-06
0.496197
2.29351e-06
0.496198
2.15522e-06
0.496198
2.1468e-06
0.496198
2.14174e-06
0.496198
2.07254e-06
0.496198
2.01102e-06
0.496199
2.03177e-06
0.496199
2.09383e-06
0.496199
2.11013e-06
0.4962
2.08546e-06
0.4962
2.11535e-06
0.496201
2.21922e-06
0.496201
2.269e-06
0.496201
2.16613e-06
0.496202
2.0119e-06
0.496202
1.98008e-06
0.496203
2.06834e-06
0.496203
2.12309e-06
0.496203
2.08436e-06
0.496204
2.04159e-06
0.496204
2.04943e-06
0.496204
2.05847e-06
0.496204
2.05897e-06
0.496204
2.12088e-06
0.496204
2.23785e-06
0.496204
2.30599e-06
0.496204
2.31094e-06
0.496204
2.36726e-06
0.496203
2.50991e-06
0.496203
2.60898e-06
0.496202
2.56793e-06
0.496202
2.46686e-06
0.496202
2.43062e-06
0.496202
2.46337e-06
0.496202
2.48352e-06
0.496201
2.46758e-06
0.496201
2.47336e-06
0.496201
2.5255e-06
0.496201
2.5534e-06
0.4962
2.49447e-06
0.4962
2.40902e-06
0.4962
2.40343e-06
0.496199
2.46175e-06
0.496199
2.4695e-06
0.496199
2.40571e-06
0.496199
2.36577e-06
0.496199
2.39093e-06
0.496198
2.39119e-06
0.496198
2.38302e-06
2.28931e-06
0.496144
6.3161e-07
0.496142
1.44907e-06
0.496141
1.29461e-06
0.496142
8.22785e-07
0.496144
3.85286e-07
0.496147
4.96237e-07
0.49615
9.9641e-07
0.496152
1.31048e-06
0.496154
1.23613e-06
0.496155
1.34353e-06
0.496155
1.66561e-06
0.496155
1.84275e-06
0.496155
1.75402e-06
0.496155
1.97205e-06
0.496154
2.38057e-06
0.496154
2.63125e-06
0.496153
2.86359e-06
0.496151
2.95938e-06
0.49615
2.76434e-06
0.496149
2.38238e-06
0.496148
2.02509e-06
0.496147
1.79271e-06
0.496148
1.67675e-06
0.496148
1.73203e-06
0.49615
1.66826e-06
0.496151
1.51901e-06
0.496152
1.73573e-06
0.496152
2.17476e-06
0.496151
2.42197e-06
0.496151
2.43234e-06
0.496149
2.5151e-06
0.496148
2.57165e-06
0.496147
2.39257e-06
0.496147
2.14893e-06
0.496147
2.15849e-06
0.496147
2.2787e-06
0.496148
2.25761e-06
0.496148
2.20842e-06
0.496149
2.23363e-06
0.496149
2.18945e-06
0.496149
2.01429e-06
0.49615
1.9171e-06
0.49615
2.07446e-06
0.49615
2.36751e-06
0.496149
2.53929e-06
0.496149
2.49528e-06
0.496148
2.32881e-06
0.496147
2.09951e-06
0.496148
1.77495e-06
0.496149
1.42126e-06
0.49615
1.23271e-06
0.496152
1.32577e-06
0.496153
1.60473e-06
0.496154
1.86615e-06
0.496155
1.98243e-06
0.496155
1.98857e-06
0.496156
1.98582e-06
0.496156
1.95872e-06
0.496157
1.82625e-06
0.496158
1.64695e-06
0.49616
1.56523e-06
0.49616
1.61999e-06
0.496161
1.77563e-06
0.496162
1.98544e-06
0.496162
2.11611e-06
0.496162
2.02614e-06
0.496163
1.79764e-06
0.496163
1.67826e-06
0.496164
1.7485e-06
0.496165
1.86268e-06
0.496166
1.90932e-06
0.496166
1.91111e-06
0.496167
1.91769e-06
0.496168
1.95106e-06
0.496168
2.02961e-06
0.496169
2.11732e-06
0.49617
2.12116e-06
0.49617
2.02902e-06
0.496171
1.94179e-06
0.496171
1.90646e-06
0.496171
1.85541e-06
0.496172
1.77665e-06
0.496173
1.76347e-06
0.496173
1.84139e-06
0.496173
1.93851e-06
0.496173
2.04161e-06
0.496173
2.16538e-06
0.496173
2.20666e-06
0.496173
2.08137e-06
0.496173
1.93791e-06
0.496173
1.97517e-06
0.496173
2.13558e-06
0.496173
2.2285e-06
0.496173
2.23396e-06
0.496173
2.24229e-06
0.496173
2.22453e-06
0.496172
2.10249e-06
0.496172
1.95645e-06
0.496172
1.94517e-06
0.496172
2.08448e-06
0.496172
2.24911e-06
0.496172
2.32415e-06
0.496172
2.27052e-06
0.496172
2.12006e-06
0.496171
1.98383e-06
0.496171
1.99725e-06
0.496171
2.19044e-06
0.496171
2.43506e-06
0.49617
2.53622e-06
0.49617
2.38412e-06
0.49617
2.06446e-06
0.49617
1.81295e-06
0.49617
1.79859e-06
0.49617
1.97368e-06
0.496169
2.19833e-06
0.496169
2.41986e-06
0.496169
2.59742e-06
0.496168
2.57679e-06
0.496168
2.27232e-06
0.496168
1.9116e-06
0.496168
1.84057e-06
0.496168
2.08117e-06
0.496168
2.31008e-06
0.496168
2.29935e-06
0.496168
2.1554e-06
0.496168
2.05497e-06
0.496169
1.95447e-06
0.496169
1.71674e-06
0.49617
1.41158e-06
0.496171
1.31678e-06
0.496172
1.58958e-06
0.496173
2.03969e-06
0.496174
2.29263e-06
0.496174
2.16116e-06
0.496175
1.81364e-06
0.496176
1.56622e-06
0.496177
1.57514e-06
0.496178
1.75216e-06
0.496178
1.91324e-06
0.496178
1.95205e-06
0.496179
1.88888e-06
0.496179
1.82603e-06
0.496179
1.84469e-06
0.49618
1.91612e-06
0.496179
1.94452e-06
0.496179
1.90224e-06
0.496179
1.86738e-06
0.496179
1.9058e-06
0.49618
1.9808e-06
0.49618
2.02077e-06
0.49618
2.02e-06
0.496179
2.02064e-06
0.496179
2.03699e-06
0.496179
2.05057e-06
0.496179
2.07382e-06
0.496179
2.1604e-06
0.496179
2.32118e-06
0.496179
2.46374e-06
0.496179
2.4619e-06
0.496179
2.29881e-06
0.496179
2.10511e-06
0.496179
2.02291e-06
0.496179
2.05739e-06
0.49618
2.08895e-06
0.49618
2.02598e-06
0.49618
1.92004e-06
0.49618
1.90727e-06
0.496181
2.03264e-06
0.496181
2.18156e-06
0.496181
2.22033e-06
0.496181
2.15872e-06
0.496182
2.09107e-06
0.496182
2.02662e-06
0.496183
1.90272e-06
0.496183
1.73758e-06
0.496183
1.6356e-06
0.496184
1.62849e-06
0.496184
1.63395e-06
0.496184
1.60724e-06
0.496184
1.62746e-06
0.496184
1.78815e-06
0.496184
2.0568e-06
0.496184
2.27847e-06
0.496184
2.31195e-06
0.496184
2.16372e-06
0.496184
1.98343e-06
0.496184
1.90691e-06
0.496184
1.91949e-06
0.496184
1.90491e-06
0.496184
1.79614e-06
0.496184
1.64543e-06
0.496184
1.57978e-06
0.496185
1.69672e-06
0.496185
1.95358e-06
0.496185
2.16223e-06
0.496185
2.17621e-06
0.496185
2.07624e-06
0.496185
2.06001e-06
0.496186
2.15666e-06
0.496186
2.19262e-06
0.496186
2.05848e-06
0.496186
1.85949e-06
0.496187
1.74941e-06
0.496187
1.73817e-06
0.496188
1.73569e-06
0.496188
1.71382e-06
0.496188
1.73481e-06
0.496188
1.83396e-06
0.496189
1.93833e-06
0.496189
1.95004e-06
0.496189
1.89066e-06
0.496189
1.87849e-06
0.49619
1.94388e-06
0.49619
1.96669e-06
0.49619
1.86172e-06
0.49619
1.72182e-06
0.496191
1.67595e-06
0.496191
1.70197e-06
0.496191
1.69763e-06
0.496192
1.65828e-06
0.496192
1.64396e-06
0.496193
1.63581e-06
0.496193
1.58047e-06
0.496194
1.52764e-06
0.496194
1.56173e-06
0.496195
1.63562e-06
0.496196
1.63602e-06
0.496196
1.58365e-06
0.496197
1.60468e-06
0.496198
1.72162e-06
0.496199
1.81995e-06
0.4962
1.82459e-06
0.4962
1.78494e-06
0.496201
1.77095e-06
0.496202
1.77468e-06
0.496202
1.75233e-06
0.496203
1.71867e-06
0.496204
1.74004e-06
0.496205
1.82796e-06
0.496205
1.89916e-06
0.496206
1.88964e-06
0.496206
1.85618e-06
0.496207
1.88183e-06
0.496207
1.93322e-06
0.496208
1.92461e-06
0.496208
1.87353e-06
0.496209
1.86207e-06
0.496209
1.88816e-06
0.49621
1.91431e-06
1.90751e-06
0.496147
2.35926e-08
0.496148
2.12921e-07
0.496148
1.48009e-06
0.496146
2.29302e-06
0.496145
1.89935e-06
0.496144
1.69556e-06
0.496143
1.47042e-06
0.496143
1.92531e-06
0.496142
2.18242e-06
0.496141
2.03669e-06
0.496141
1.89314e-06
0.49614
1.99744e-06
0.49614
2.01982e-06
0.49614
1.70377e-06
0.496142
1.33526e-06
0.496143
1.19542e-06
0.496144
1.61152e-06
0.496145
2.00541e-06
0.496146
1.93498e-06
0.496146
2.02562e-06
0.496146
2.1028e-06
0.496146
1.76342e-06
0.496147
1.30665e-06
0.496147
1.15753e-06
0.496148
1.31883e-06
0.496148
1.43763e-06
0.496148
1.3858e-06
0.496149
1.33107e-06
0.49615
1.40916e-06
0.496151
1.54605e-06
0.496152
1.65925e-06
0.496152
1.72435e-06
0.496153
1.69841e-06
0.496154
1.51495e-06
0.496155
1.2427e-06
0.496156
1.08722e-06
0.496157
1.16584e-06
0.496158
1.38349e-06
0.496159
1.55117e-06
0.496159
1.63213e-06
0.496159
1.74479e-06
0.496159
1.89434e-06
0.49616
1.92313e-06
0.49616
1.79879e-06
0.496161
1.74389e-06
0.496161
1.94398e-06
0.496162
2.26176e-06
0.496161
2.38232e-06
0.496161
2.18541e-06
0.49616
1.87948e-06
0.49616
1.73504e-06
0.496159
1.77175e-06
0.496159
1.81095e-06
0.496159
1.77999e-06
0.496159
1.78461e-06
0.49616
1.90953e-06
0.496159
2.08318e-06
0.496159
2.12107e-06
0.496159
1.92878e-06
0.496159
1.68928e-06
0.496159
1.68088e-06
0.496159
1.88321e-06
0.496159
2.02411e-06
0.496159
2.00298e-06
0.496159
1.974e-06
0.496159
2.03329e-06
0.496158
2.09303e-06
0.496158
2.05225e-06
0.496158
1.89309e-06
0.496158
1.66249e-06
0.496158
1.47943e-06
0.496159
1.46354e-06
0.496159
1.57533e-06
0.49616
1.64053e-06
0.49616
1.59448e-06
0.496161
1.55619e-06
0.496161
1.627e-06
0.496161
1.7569e-06
0.496161
1.84973e-06
0.496161
1.85835e-06
0.496162
1.76762e-06
0.496162
1.63687e-06
0.496162
1.61825e-06
0.496162
1.76152e-06
0.496162
1.88325e-06
0.496162
1.81044e-06
0.496163
1.62668e-06
0.496163
1.50426e-06
0.496164
1.46671e-06
0.496165
1.48675e-06
0.496165
1.60865e-06
0.496165
1.79581e-06
0.496166
1.86828e-06
0.496166
1.75259e-06
0.496167
1.60955e-06
0.496167
1.59171e-06
0.496168
1.65585e-06
0.496168
1.70315e-06
0.496168
1.73642e-06
0.496169
1.78067e-06
0.496169
1.79625e-06
0.49617
1.73755e-06
0.49617
1.6154e-06
0.496171
1.47341e-06
0.496171
1.3743e-06
0.496172
1.39605e-06
0.496173
1.56385e-06
0.496173
1.78586e-06
0.496174
1.89224e-06
0.496175
1.75165e-06
0.496175
1.39535e-06
0.496176
1.06091e-06
0.496177
1.02925e-06
0.496177
1.33784e-06
0.496178
1.73011e-06
0.496178
1.95593e-06
0.496179
1.99756e-06
0.49618
1.92942e-06
0.49618
1.74921e-06
0.496181
1.51388e-06
0.496181
1.46958e-06
0.496181
1.79969e-06
0.496181
2.31047e-06
0.496181
2.58552e-06
0.496181
2.45587e-06
0.496181
2.15528e-06
0.49618
1.99788e-06
0.49618
2.04466e-06
0.496179
2.14248e-06
0.496179
2.18592e-06
0.496178
2.23062e-06
0.496178
2.35327e-06
0.496177
2.48773e-06
0.496177
2.47364e-06
0.496177
2.25833e-06
0.496176
1.97936e-06
0.496176
1.82796e-06
0.496176
1.86691e-06
0.496176
2.00346e-06
0.496176
2.09226e-06
0.496175
2.04262e-06
0.496175
1.88605e-06
0.496176
1.75586e-06
0.496176
1.76472e-06
0.496176
1.89091e-06
0.496176
2.01636e-06
0.496175
2.06606e-06
0.496175
2.05665e-06
0.496175
2.01985e-06
0.496175
1.95538e-06
0.496175
1.87545e-06
0.496176
1.83269e-06
0.496176
1.86448e-06
0.496176
1.93051e-06
0.496176
1.95205e-06
0.496176
1.90838e-06
0.496177
1.86095e-06
0.496177
1.86589e-06
0.496178
1.87962e-06
0.496178
1.79737e-06
0.496179
1.59126e-06
0.49618
1.3683e-06
0.49618
1.27198e-06
0.496181
1.33885e-06
0.496182
1.46872e-06
0.496182
1.54716e-06
0.496182
1.58022e-06
0.496183
1.66807e-06
0.496183
1.84178e-06
0.496183
1.99596e-06
0.496183
2.02709e-06
0.496184
1.96562e-06
0.496184
1.89136e-06
0.496184
1.80038e-06
0.496184
1.65584e-06
0.496184
1.51422e-06
0.496184
1.48057e-06
0.496184
1.56127e-06
0.496184
1.65958e-06
0.496184
1.7082e-06
0.496184
1.74189e-06
0.496184
1.83436e-06
0.496185
1.9934e-06
0.496185
2.12424e-06
0.496185
2.10589e-06
0.496185
1.92016e-06
0.496185
1.68055e-06
0.496186
1.51734e-06
0.496186
1.4662e-06
0.496186
1.47279e-06
0.496187
1.46415e-06
0.496187
1.41888e-06
0.496187
1.41e-06
0.496187
1.55024e-06
0.496188
1.83133e-06
0.496188
2.07241e-06
0.496188
2.11888e-06
0.496188
2.03479e-06
0.496188
1.98884e-06
0.496188
2.00743e-06
0.496188
1.97376e-06
0.496188
1.83717e-06
0.496188
1.69097e-06
0.496188
1.63144e-06
0.496189
1.63853e-06
0.496189
1.63627e-06
0.496189
1.61213e-06
0.496189
1.62957e-06
0.496189
1.71456e-06
0.496189
1.78298e-06
0.496189
1.73894e-06
0.49619
1.61993e-06
0.49619
1.55397e-06
0.496191
1.56585e-06
0.496191
1.54375e-06
0.496191
1.42537e-06
0.496192
1.28955e-06
0.496192
1.21434e-06
0.496193
1.1637e-06
0.496193
1.09202e-06
0.496194
1.04194e-06
0.496194
1.04561e-06
0.496195
1.04101e-06
0.496195
9.91e-07
0.496196
9.76374e-07
0.496197
1.05903e-06
0.496197
1.1547e-06
0.496197
1.16122e-06
0.496198
1.12147e-06
0.496199
1.14521e-06
0.496199
1.23696e-06
0.4962
1.31366e-06
0.4962
1.34028e-06
0.4962
1.36055e-06
0.496201
1.4121e-06
0.496201
1.46986e-06
0.496201
1.49273e-06
0.496202
1.5003e-06
0.496202
1.55541e-06
0.496202
1.66076e-06
0.496202
1.73626e-06
0.496202
1.74014e-06
0.496202
1.73617e-06
0.496203
1.77857e-06
0.496203
1.8174e-06
0.496203
1.79663e-06
0.496203
1.75368e-06
0.496203
1.73188e-06
0.496203
1.73527e-06
1.71103e-06
0.496143
6.2292e-07
0.496143
9.89948e-07
0.496144
3.43609e-07
0.496146
6.16194e-08
0.496147
8.94875e-07
0.496148
1.04892e-06
0.496148
1.09613e-06
0.496149
9.70592e-07
0.49615
6.68426e-07
0.496152
8.6308e-07
0.496152
1.40815e-06
0.496153
1.55636e-06
0.496153
1.49871e-06
0.496153
1.72294e-06
0.496152
2.04079e-06
0.496152
1.57225e-06
0.496153
8.23249e-07
0.496154
9.96333e-07
0.496154
1.33203e-06
0.496155
1.32333e-06
0.496156
1.5167e-06
0.496156
1.90819e-06
0.496155
2.19303e-06
0.496154
2.1656e-06
0.496153
1.99553e-06
0.496153
1.83015e-06
0.496152
1.62444e-06
0.496152
1.63527e-06
0.496152
1.71862e-06
0.496152
1.6574e-06
0.496152
1.71252e-06
0.496151
2.04952e-06
0.496151
2.2906e-06
0.49615
2.1008e-06
0.49615
1.69657e-06
0.496149
1.47543e-06
0.496149
1.45961e-06
0.496149
1.39666e-06
0.496149
1.23587e-06
0.49615
1.20629e-06
0.49615
1.41885e-06
0.49615
1.60946e-06
0.496151
1.4913e-06
0.496151
1.17526e-06
0.496152
1.03467e-06
0.496153
1.20644e-06
0.496154
1.45201e-06
0.496154
1.54383e-06
0.496155
1.54678e-06
0.496155
1.65268e-06
0.496155
1.84505e-06
0.496155
1.89493e-06
0.496155
1.67285e-06
0.496156
1.34303e-06
0.496156
1.16667e-06
0.496157
1.19829e-06
0.496158
1.31813e-06
0.496158
1.4324e-06
0.496159
1.51661e-06
0.496159
1.60074e-06
0.496159
1.73577e-06
0.496159
1.84983e-06
0.496159
1.75706e-06
0.49616
1.45441e-06
0.49616
1.22866e-06
0.496161
1.30758e-06
0.496162
1.57843e-06
0.496162
1.79128e-06
0.496162
1.85605e-06
0.496162
1.83603e-06
0.496161
1.80751e-06
0.496161
1.81145e-06
0.496161
1.82359e-06
0.496161
1.75483e-06
0.496161
1.58041e-06
0.496161
1.42959e-06
0.496161
1.44217e-06
0.496161
1.57188e-06
0.496161
1.66426e-06
0.496162
1.66273e-06
0.496162
1.61078e-06
0.496162
1.5512e-06
0.496162
1.54401e-06
0.496162
1.64402e-06
0.496162
1.75515e-06
0.496162
1.69024e-06
0.496162
1.45808e-06
0.496163
1.2829e-06
0.496163
1.28652e-06
0.496163
1.38037e-06
0.496163
1.48965e-06
0.496163
1.62474e-06
0.496163
1.71264e-06
0.496164
1.62308e-06
0.496164
1.39622e-06
0.496164
1.23977e-06
0.496164
1.27994e-06
0.496165
1.46016e-06
0.496165
1.66924e-06
0.496165
1.81607e-06
0.496165
1.81752e-06
0.496165
1.65207e-06
0.496165
1.42407e-06
0.496165
1.29056e-06
0.496165
1.32982e-06
0.496165
1.50508e-06
0.496165
1.70944e-06
0.496165
1.82825e-06
0.496165
1.79973e-06
0.496165
1.63191e-06
0.496165
1.37715e-06
0.496165
1.1469e-06
0.496165
1.11979e-06
0.496165
1.38759e-06
0.496165
1.76818e-06
0.496165
1.93135e-06
0.496165
1.76339e-06
0.496166
1.46307e-06
0.496166
1.24607e-06
0.496167
1.13768e-06
0.496167
1.12182e-06
0.496167
1.27694e-06
0.496168
1.60703e-06
0.496169
1.87855e-06
0.496169
1.81832e-06
0.49617
1.44727e-06
0.496171
1.09393e-06
0.496172
1.05896e-06
0.496173
1.33553e-06
0.496173
1.66686e-06
0.496174
1.82439e-06
0.496174
1.78839e-06
0.496175
1.67744e-06
0.496176
1.57521e-06
0.496177
1.47551e-06
0.496177
1.36333e-06
0.496178
1.27381e-06
0.496179
1.24614e-06
0.496179
1.27737e-06
0.49618
1.32464e-06
0.496181
1.32597e-06
0.496181
1.24343e-06
0.496182
1.11712e-06
0.496183
1.05784e-06
0.496184
1.13919e-06
0.496184
1.31154e-06
0.496185
1.46253e-06
0.496185
1.53804e-06
0.496186
1.55992e-06
0.496186