/*--------------------------------*- C++ -*----------------------------------*\
| =========                 |                                                 |
| \\      /  F ield         | OpenFOAM: The Open Source CFD Toolbox           |
|  \\    /   O peration     | Version:  2406                                  |
|   \\  /    A nd           | Website:  www.openfoam.com                      |
|    \\/     M anipulation  |                                                 |
\*---------------------------------------------------------------------------*/
FoamFile
{
    version     2.0;
    format      ascii;
    arch        "LSB;label=32;scalar=64";
    class       volScalarField;
    location    "0.75";
    object      p;
}
// * * * * * * * * * * * * * * * * * * * * * * * * * * * * * * * * * * * * * //

dimensions      [1 -1 -2 0 0 0 0];

internalField   nonuniform List<scalar> 
6250
(
335.115
-2724.95
-703.402
780.531
748.546
309.271
154.874
224.713
295.449
300.788
280.879
270.636
271.54
273.859
273.428
271.52
269.862
268.736
267.74
266.635
265.449
264.265
263.107
261.962
260.814
259.658
258.495
257.339
256.184
255.024
253.864
252.705
251.549
250.395
249.241
248.085
246.928
245.772
244.616
243.458
242.301
241.145
239.989
238.833
237.679
236.524
235.367
234.21
233.052
231.894
230.737
229.584
228.431
227.272
226.111
224.953
223.799
222.645
221.487
220.33
219.174
218.019
216.862
215.705
214.549
213.394
212.237
211.079
209.92
208.764
207.609
206.454
205.296
204.139
202.983
201.828
200.671
199.512
198.355
197.2
196.045
194.887
193.729
192.573
191.418
190.263
189.106
187.947
186.788
185.632
184.478
183.323
182.168
181.01
179.851
178.693
177.538
176.383
175.227
174.069
172.913
171.758
170.603
169.444
168.285
167.127
165.973
164.819
163.664
162.506
161.347
160.188
159.032
157.877
156.723
155.568
154.411
153.252
152.093
150.937
149.781
148.625
147.468
146.313
145.157
144
142.842
141.686
140.53
139.374
138.217
137.06
135.903
134.748
133.592
132.435
131.278
130.12
128.962
127.805
126.648
125.494
124.341
123.187
122.031
120.873
119.713
118.552
117.393
116.237
115.083
113.931
112.779
111.624
110.466
109.305
108.144
106.985
105.828
104.674
103.52
102.367
101.213
100.057
98.8997
97.7401
96.5793
95.4196
94.2632
93.1103
91.9584
90.8045
89.6482
88.4913
87.3345
86.1767
85.0173
83.8579
82.7004
81.5452
80.391
79.2367
78.082
76.9263
75.769
74.6107
73.4524
72.2948
71.1375
69.9803
68.8242
67.6696
66.5155
65.3603
64.2039
63.0474
61.8908
60.7328
59.5735
58.4152
57.2593
56.1046
54.9492
53.7934
52.6389
51.4854
50.3307
49.1736
48.0155
46.8579
45.7004
44.542
43.3836
42.2267
41.0722
39.9183
38.7638
37.6089
36.4548
35.3007
34.1447
32.9865
31.8274
30.6681
29.5074
28.3456
27.1842
26.0241
24.8643
23.705
22.5476
21.3934
20.2412
19.0886
17.9356
16.7835
15.6322
14.4803
13.3262
12.1703
11.0142
9.85765
8.69938
7.53898
6.3778
5.21691
4.05627
2.89577
1.73643
0.578316
335.091
-2725.01
-703.438
780.54
748.558
309.267
154.864
224.707
295.442
300.78
280.876
270.642
271.55
273.861
273.425
271.518
269.861
268.735
267.74
266.638
265.455
264.273
263.113
261.959
260.805
259.651
258.491
257.33
256.177
255.025
253.87
252.714
251.555
250.399
249.242
248.084
246.926
245.77
244.616
243.46
242.303
241.147
239.992
238.835
237.677
236.519
235.362
234.207
233.053
231.898
230.74
229.581
228.425
227.268
226.11
224.952
223.798
222.645
221.489
220.33
219.172
218.015
216.859
215.704
214.547
213.39
212.233
211.078
209.923
208.767
207.609
206.453
205.296
204.139
202.981
201.825
200.67
199.514
198.358
197.202
196.045
194.887
193.729
192.573
191.419
190.264
189.108
187.949
186.791
185.634
184.478
183.323
182.166
181.01
179.853
178.694
177.537
176.382
175.229
174.073
172.914
171.756
170.6
169.444
168.288
167.131
165.974
164.819
163.663
162.506
161.347
160.189
159.033
157.878
156.723
155.568
154.412
153.253
152.093
150.936
149.782
148.628
147.47
146.311
145.155
144
142.845
141.687
140.53
139.373
138.216
137.059
135.902
134.745
133.591
132.436
131.279
130.12
128.961
127.802
126.646
125.493
124.341
123.188
122.032
120.872
119.71
118.55
117.392
116.237
115.084
113.932
112.779
111.624
110.466
109.305
108.143
106.983
105.826
104.673
103.522
102.371
101.216
100.058
98.8986
97.7391
96.5804
95.4217
94.2639
93.109
91.9577
90.8072
89.6535
88.4956
87.3359
86.1768
85.0181
83.8593
82.7016
81.5465
80.3935
79.2404
78.0859
76.93
75.7725
74.6135
73.454
72.2953
71.1381
69.9817
68.826
67.6718
66.5188
65.365
64.2081
63.0491
61.8907
60.7338
59.5762
58.4166
57.2582
56.1031
54.9501
53.7962
52.641
51.486
50.3313
49.1751
48.0166
46.8573
45.6992
44.5421
43.3843
42.2262
41.0699
39.9167
38.7646
37.6111
36.4561
35.3013
34.1461
32.9889
31.829
30.6684
29.5076
28.3459
27.1836
26.0227
24.864
23.7058
22.5475
21.3911
20.2383
19.0876
17.9364
16.7842
15.6324
14.4813
13.329
12.1735
11.0155
9.85702
8.69854
7.53884
6.37765
5.21645
4.05627
2.89642
1.73775
0.577584
335.085
-2725.01
-703.432
780.544
748.564
309.278
154.877
224.718
295.453
300.786
280.881
270.641
271.547
273.862
273.427
271.518
269.861
268.734
267.734
266.63
265.448
264.267
263.11
261.962
260.809
259.655
258.499
257.339
256.181
255.024
253.867
252.71
251.552
250.394
249.238
248.083
246.928
245.773
244.616
243.459
242.301
241.145
239.991
238.835
237.678
236.523
235.367
234.208
233.05
231.895
230.739
229.581
228.425
227.27
226.115
224.958
223.8
222.643
221.487
220.33
219.173
218.017
216.862
215.707
214.551
213.393
212.235
211.078
209.923
208.767
207.609
206.452
205.297
204.141
202.983
201.825
200.669
199.514
198.359
197.202
196.044
194.886
193.73
192.575
191.42
190.263
189.105
187.947
186.79
185.634
184.479
183.323
182.165
181.008
179.852
178.697
177.539
176.381
175.226
174.071
172.915
171.757
170.599
169.442
168.286
167.131
165.975
164.819
163.662
162.504
161.346
160.189
159.034
157.879
156.724
155.567
154.41
153.252
152.094
150.936
149.781
148.627
147.471
146.312
145.154
143.998
142.844
141.688
140.531
139.373
138.215
137.059
135.903
134.748
133.593
132.437
131.279
130.119
128.96
127.803
126.649
125.495
124.343
123.189
122.032
120.871
119.71
118.549
117.392
116.238
115.087
113.935
112.781
111.624
110.464
109.302
108.142
106.984
105.828
104.675
103.523
102.371
101.216
100.058
98.8973
97.7361
96.5773
95.4211
94.2662
93.1116
91.958
90.8053
89.6514
88.4942
87.3342
86.1741
85.0155
83.8582
82.7017
81.5464
80.3924
79.2386
78.0837
76.9274
75.77
74.6113
73.4517
72.2929
71.136
69.9809
68.826
67.6706
66.5159
65.3619
64.2068
63.0488
61.8891
60.7303
59.5731
58.4157
57.2581
56.1022
54.9487
53.7958
52.6412
51.4856
50.33
49.1741
48.0164
46.8568
45.6973
44.5397
43.3835
42.2274
41.0713
39.9168
38.7641
37.6113
36.4568
35.3012
34.1453
32.988
31.8284
30.6674
29.5064
28.345
27.1828
26.021
24.8618
23.7052
22.5493
21.3935
20.2392
19.0873
17.9365
16.7849
15.6321
14.4795
13.3272
12.1735
11.017
9.85822
8.6987
7.53853
6.37723
5.21546
4.05467
2.89518
1.73649
0.578275
335.072
-2725.01
-703.434
780.53
748.548
309.261
154.862
224.708
295.444
300.777
280.873
270.638
271.547
273.863
273.425
271.516
269.861
268.741
267.745
266.639
265.452
264.269
263.112
261.962
260.805
259.646
258.491
257.337
256.181
255.023
253.867
252.713
251.556
250.398
249.24
248.083
246.928
245.772
244.615
243.459
242.303
241.145
239.988
238.832
237.676
236.522
235.368
234.211
233.051
231.894
230.739
229.582
228.424
227.267
226.112
224.956
223.798
222.641
221.485
220.33
219.174
218.017
216.86
215.703
214.547
213.391
212.235
211.078
209.922
208.766
207.608
206.451
205.295
204.14
202.983
201.825
200.668
199.513
198.358
197.202
196.044
194.886
193.73
192.576
191.42
190.263
189.104
187.947
186.79
185.635
184.479
183.323
182.166
181.008
179.852
178.697
177.54
176.382
175.225
174.07
172.916
171.759
170.6
169.442
168.285
167.13
165.976
164.819
163.662
162.504
161.347
160.19
159.034
157.88
156.724
155.566
154.408
153.252
152.096
150.939
149.782
148.625
147.47
146.313
145.155
143.999
142.844
141.689
140.532
139.373
138.214
137.057
135.902
134.748
133.593
132.437
131.279
130.119
128.96
127.802
126.648
125.495
124.342
123.187
122.03
120.87
119.709
118.549
117.392
116.238
115.086
113.935
112.781
111.624
110.463
109.302
108.141
106.984
105.829
104.676
103.523
102.37
101.216
100.058
98.8981
97.7366
96.5766
95.4201
94.2667
93.1138
91.96
90.8056
89.6508
88.4942
87.335
86.1744
85.0151
83.8581
82.7028
81.5484
80.3946
79.2406
78.0853
76.9285
75.7706
74.6121
73.4532
72.2942
71.1366
69.9815
68.8279
67.6737
66.5183
65.3627
64.2074
63.0507
61.8915
60.7314
59.5731
58.4166
57.2602
56.1039
54.9493
53.7963
52.6428
51.4875
50.3309
49.1743
48.0172
46.8588
45.699
44.5399
43.3829
42.2275
41.0722
39.9172
38.7636
37.611
36.4574
35.3019
34.1454
32.9882
31.8293
30.6683
29.5068
28.3457
27.1844
26.0226
24.8618
23.7038
22.5484
21.3939
20.2399
19.0873
17.9366
16.7862
15.6343
14.4807
13.3268
12.1725
11.0166
9.85843
8.69874
7.53857
6.3778
5.21625
4.05489
2.89489
1.73611
0.578827
335.072
-2725.03
-703.44
780.542
748.56
309.271
154.869
224.715
295.453
300.784
280.872
270.635
271.548
273.866
273.428
271.517
269.858
268.732
267.736
266.634
265.452
264.268
263.111
261.965
260.812
259.651
258.495
257.339
256.181
255.022
253.866
252.711
251.555
250.397
249.239
248.083
246.928
245.771
244.615
243.46
242.305
241.147
239.99
238.833
237.677
236.52
235.366
234.21
233.051
231.893
230.739
229.586
228.429
227.269
226.112
224.957
223.8
222.643
221.486
220.331
219.175
218.019
216.861
215.703
214.547
213.393
212.238
211.08
209.922
208.766
207.61
206.453
205.296
204.139
202.983
201.826
200.67
199.514
198.358
197.202
196.044
194.887
193.73
192.575
191.42
190.263
189.105
187.948
186.791
185.634
184.477
183.322
182.166
181.009
179.852
178.695
177.54
176.383
175.226
174.069
172.914
171.758
170.6
169.443
168.285
167.13
165.974
164.818
163.661
162.504
161.348
160.191
159.035
157.879
156.723
155.565
154.407
153.25
152.096
150.941
149.783
148.625
147.467
146.311
145.156
144
142.844
141.688
140.531
139.372
138.214
137.057
135.902
134.748
133.594
132.438
131.279
130.119
128.96
127.803
126.648
125.496
124.343
123.188
122.029
120.869
119.709
118.55
117.393
116.24
115.088
113.935
112.781
111.623
110.463
109.301
108.141
106.984
105.83
104.678
103.525
102.371
101.214
100.056
98.8972
97.7373
96.5776
95.4203
94.2663
93.1143
91.9615
90.8063
89.6496
88.492
87.3334
86.1738
85.0146
83.8575
82.7025
81.5486
80.3948
79.2407
78.0851
76.9276
75.7687
74.6097
73.4512
72.2932
71.1358
69.9801
68.8265
67.6735
66.519
65.3624
64.2054
63.0485
61.8903
60.7304
59.571
58.414
57.2588
56.1038
54.949
53.7954
52.6422
51.4878
50.3312
49.1733
48.0154
46.8574
45.6986
44.5393
43.3813
42.2257
41.0716
39.9175
38.7635
37.6103
36.4571
35.3022
34.1454
32.9875
31.8287
30.6679
29.5057
28.3439
27.1832
26.0227
24.8623
23.7034
22.5473
21.3935
20.2402
19.0873
17.9354
16.7849
15.6342
14.4818
13.3275
12.1723
11.0162
9.85826
8.6984
7.53775
6.377
5.21597
4.05478
2.89448
1.7356
0.578487
335.078
-2725.02
-703.447
780.532
748.555
309.267
154.862
224.707
295.448
300.785
280.876
270.634
271.542
273.861
273.428
271.52
269.859
268.733
267.739
266.634
265.45
264.269
263.112
261.965
260.812
259.65
258.491
257.336
256.18
255.021
253.866
252.712
251.556
250.399
249.242
248.084
246.927
245.77
244.614
243.458
242.303
241.146
239.989
238.834
237.679
236.522
235.365
234.209
233.05
231.892
230.737
229.583
228.427
227.269
226.111
224.955
223.799
222.642
221.485
220.33
219.174
218.017
216.859
215.703
214.547
213.393
212.237
211.079
209.92
208.763
207.609
206.453
205.296
204.138
202.981
201.826
200.67
199.513
198.357
197.201
196.044
194.888
193.731
192.574
191.418
190.262
189.105
187.948
186.792
185.635
184.477
183.321
182.166
181.01
179.853
178.695
177.538
176.383
175.227
174.07
172.913
171.757
170.6
169.443
168.286
167.13
165.974
164.818
163.661
162.505
161.349
160.193
159.035
157.878
156.721
155.564
154.408
153.251
152.096
150.941
149.784
148.625
147.467
146.31
145.155
144.001
142.846
141.689
140.53
139.371
138.213
137.057
135.903
134.749
133.595
132.438
131.279
130.119
128.96
127.803
126.648
125.496
124.343
123.187
122.028
120.868
119.708
118.55
117.394
116.241
115.088
113.935
112.779
111.621
110.461
109.301
108.141
106.985
105.83
104.678
103.526
102.371
101.214
100.055
98.8951
97.7364
96.5786
95.4219
94.2671
93.1143
91.9617
90.8068
89.6494
88.4906
87.3317
86.1729
85.0147
83.8582
82.7035
81.5497
80.3959
79.2412
78.0855
76.928
75.7689
74.6092
73.4505
72.2934
71.1372
69.9816
68.8272
67.6741
66.5206
65.3646
64.2066
63.0483
61.8902
60.7315
59.5722
58.4143
57.259
56.1051
54.951
53.7968
52.643
51.4889
50.3329
49.1748
48.0158
46.8572
45.6989
44.5405
43.3823
42.2259
41.0716
39.9182
38.7645
37.6107
36.4572
35.3027
34.1462
32.9879
31.8289
30.6687
29.5068
28.3442
27.1827
26.0227
24.8634
23.7047
22.5478
21.3935
20.241
19.0888
17.9366
16.7851
15.6341
14.4823
13.3285
12.1729
11.0164
9.8586
8.699
7.53804
6.37682
5.21582
4.05495
2.89473
1.73569
0.578675
335.072
-2725.03
-703.448
780.537
748.552
309.267
154.865
224.713
295.451
300.786
280.876
270.636
271.546
273.863
273.426
271.518
269.863
268.738
267.739
266.633
265.449
264.268
263.107
261.959
260.81
259.654
258.496
257.34
256.183
255.024
253.865
252.708
251.552
250.396
249.241
248.084
246.927
245.771
244.616
243.46
242.305
241.147
239.988
238.831
237.677
236.523
235.366
234.209
233.054
231.897
230.738
229.581
228.425
227.27
226.114
224.957
223.8
222.643
221.487
220.332
219.175
218.016
216.859
215.705
214.551
213.394
212.236
211.079
209.921
208.765
207.61
206.454
205.298
204.14
202.982
201.826
200.67
199.514
198.358
197.202
196.045
194.888
193.731
192.575
191.418
190.262
189.106
187.949
186.792
185.635
184.478
183.321
182.165
181.01
179.854
178.696
177.538
176.382
175.227
174.07
172.913
171.757
170.6
169.444
168.287
167.13
165.973
164.817
163.661
162.505
161.35
160.193
159.036
157.877
156.719
155.563
154.408
153.253
152.097
150.941
149.783
148.625
147.466
146.31
145.156
144.002
142.847
141.689
140.529
139.37
138.212
137.057
135.903
134.75
133.596
132.438
131.279
130.119
128.96
127.804
126.649
125.496
124.343
123.187
122.028
120.868
119.708
118.55
117.395
116.242
115.09
113.936
112.779
111.62
110.46
109.3
108.142
106.986
105.832
104.679
103.526
102.372
101.214
100.055
98.8943
97.7355
96.579
95.4238
94.2692
93.1153
91.9615
90.8065
89.649
88.4897
87.3302
86.1718
85.0145
83.8587
82.7044
81.5509
80.3969
79.2416
78.0849
76.9271
75.768
74.6082
73.4491
72.2919
71.1368
69.9824
68.8279
67.6737
66.5199
65.3647
64.2068
63.0473
61.8881
60.7298
59.5715
58.4137
57.2579
56.1042
54.951
53.7973
52.6429
51.4881
50.3325
49.175
48.0157
46.856
45.6973
44.5395
43.3819
42.2252
41.0703
39.9172
38.7642
37.6105
36.4565
35.302
34.1459
32.9875
31.8279
30.6678
29.5067
28.3443
27.182
26.0213
24.8625
23.7046
22.5477
21.3927
20.24
19.0886
17.9371
16.7852
15.6335
14.4815
13.3282
12.1728
11.0159
9.85787
8.6986
7.53787
6.37642
5.21517
4.0544
2.89433
1.73537
0.578345
335.077
-2725.03
-703.449
780.535
748.553
309.261
154.858
224.705
295.446
300.784
280.876
270.637
271.545
273.861
273.426
271.518
269.86
268.735
267.741
266.635
265.451
264.272
263.11
261.959
260.808
259.651
258.491
257.335
256.181
255.026
253.868
252.71
251.553
250.398
249.243
248.086
246.926
245.769
244.614
243.46
242.304
241.148
239.99
238.832
237.677
236.521
235.363
234.207
233.053
231.898
230.739
229.579
228.423
227.269
226.114
224.955
223.798
222.642
221.488
220.331
219.173
218.015
216.859
215.705
214.55
213.392
212.233
211.077
209.921
208.765
207.609
206.453
205.297
204.14
202.982
201.825
200.668
199.513
198.358
197.202
196.044
194.887
193.73
192.574
191.418
190.262
189.106
187.949
186.791
185.635
184.478
183.321
182.164
181.008
179.853
178.697
177.539
176.382
175.225
174.069
172.913
171.757
170.601
169.444
168.287
167.129
165.972
164.816
163.661
162.506
161.35
160.193
159.035
157.877
156.718
155.562
154.408
153.255
152.099
150.941
149.782
148.623
147.466
146.31
145.156
144.002
142.847
141.688
140.529
139.369
138.212
137.057
135.904
134.751
133.596
132.438
131.278
130.118
128.96
127.804
126.65
125.496
124.342
123.185
122.027
120.867
119.708
118.551
117.396
116.242
115.089
113.935
112.778
111.619
110.459
109.3
108.142
106.987
105.834
104.68
103.526
102.37
101.213
100.054
98.894
97.735
96.5786
95.4245
94.2708
93.1164
91.9612
90.8051
89.6475
88.4884
87.329
86.1708
85.0142
83.8592
82.7052
81.5518
80.3978
79.2421
78.0846
76.9259
75.7669
74.6077
73.4488
72.2915
71.1365
69.9832
68.8297
67.6752
66.5202
65.3647
64.2074
63.0479
61.8878
60.7289
59.5714
58.4145
57.2586
56.1046
54.9519
53.7989
52.6446
51.4891
50.3329
49.1756
48.0168
46.8568
45.6972
44.5392
43.3823
42.226
41.0708
39.9172
38.7646
37.6114
36.4572
35.3024
34.1465
32.9884
31.8284
30.6676
29.5067
28.3452
27.1832
26.0219
24.8626
23.7052
22.549
21.3938
20.2404
19.0887
17.9379
16.7865
15.6344
14.4819
13.3285
12.1735
11.0164
9.85801
8.69866
7.53822
6.37686
5.21541
4.05454
2.89457
1.73568
0.578564
335.07
-2725.03
-703.448
780.533
748.557
309.269
154.86
224.704
295.446
300.784
280.874
270.633
271.548
273.866
273.424
271.516
269.862
268.736
267.739
266.634
265.451
264.269
263.11
261.962
260.811
259.654
258.495
257.337
256.181
255.025
253.867
252.709
251.552
250.397
249.242
248.086
246.927
245.77
244.615
243.458
242.301
241.146
239.992
238.836
237.678
236.522
235.365
234.208
233.051
231.895
230.738
229.582
228.426
227.271
226.114
224.955
223.798
222.644
221.488
220.331
219.173
218.017
216.861
215.706
214.55
213.392
212.234
211.078
209.923
208.767
207.61
206.453
205.297
204.141
202.983
201.825
200.669
199.514
198.359
197.203
196.045
194.887
193.73
192.574
191.419
190.263
189.107
187.95
186.792
185.635
184.478
183.322
182.165
181.008
179.853
178.698
177.541
176.382
175.224
174.068
172.913
171.758
170.602
169.445
168.287
167.128
165.971
164.815
163.662
162.508
161.351
160.193
159.034
157.876
156.718
155.563
154.409
153.255
152.099
150.941
149.781
148.622
147.466
146.311
145.158
144.003
142.847
141.688
140.528
139.369
138.212
137.058
135.905
134.751
133.596
132.438
131.278
130.118
128.96
127.805
126.651
125.497
124.342
123.185
122.026
120.867
119.709
118.552
117.397
116.244
115.09
113.934
112.777
111.618
110.459
109.3
108.143
106.989
105.835
104.682
103.526
102.369
101.211
100.053
98.8943
97.7361
96.5797
95.4254
94.272
93.1179
91.9619
90.8045
89.6462
88.4872
87.3283
86.1705
85.0146
83.8602
82.7065
81.5528
80.3985
79.2426
78.0846
76.9251
75.7654
74.6065
73.4486
72.2916
71.1364
69.9832
68.8306
67.6766
66.5208
65.364
64.2066
63.0476
61.8874
60.7277
59.5701
58.414
57.2588
56.1047
54.9517
53.7991
52.6453
51.4897
50.3326
49.1748
48.0163
46.8567
45.6968
44.538
43.3811
42.2255
41.0704
39.9164
38.7636
37.6108
36.4568
35.3016
34.1456
32.9881
31.8284
30.667
29.5056
28.3443
27.183
26.0218
24.8619
23.7043
22.5486
21.394
20.2405
19.0882
17.9372
16.7862
15.6344
14.4816
13.3279
12.173
11.0161
9.85754
8.69788
7.53748
6.37633
5.21492
4.05396
2.89401
1.73518
0.578331
335.065
-2725.04
-703.452
780.533
748.554
309.268
154.865
224.711
295.447
300.781
280.876
270.636
271.541
273.859
273.425
271.518
269.859
268.732
267.739
266.636
265.452
264.271
263.113
261.962
260.808
259.651
258.493
257.337
256.18
255.023
253.867
252.711
251.555
250.398
249.24
248.083
246.928
245.772
244.616
243.459
242.302
241.146
239.99
238.832
237.675
236.521
235.368
234.211
233.051
231.893
230.737
229.583
228.427
227.269
226.112
224.955
223.799
222.643
221.487
220.33
219.173
218.017
216.861
215.704
214.547
213.391
212.235
211.079
209.922
208.765
207.609
206.453
205.297
204.14
202.982
201.825
200.668
199.513
198.358
197.202
196.044
194.887
193.73
192.574
191.418
190.262
189.105
187.95
186.793
185.635
184.477
183.32
182.164
181.009
179.853
178.698
177.541
176.382
175.223
174.067
172.913
171.759
170.603
169.445
168.286
167.127
165.97
164.815
163.662
162.508
161.352
160.192
159.032
157.874
156.719
155.564
154.41
153.255
152.099
150.94
149.78
148.621
147.465
146.312
145.158
144.003
142.846
141.687
140.527
139.369
138.212
137.058
135.905
134.751
133.595
132.436
131.277
130.118
128.96
127.805
126.651
125.497
124.341
123.184
122.025
120.866
119.709
118.553
117.398
116.244
115.089
113.933
112.775
111.616
110.458
109.3
108.144
106.99
105.836
104.682
103.526
102.369
101.21
100.051
98.8934
97.7367
96.5809
95.4262
94.2724
93.118
91.9617
90.8035
89.6444
88.4854
87.327
86.1699
85.0146
83.8609
82.7075
81.5536
80.3987
79.2423
78.084
76.9242
75.7639
74.6049
73.4477
72.2919
71.137
69.9835
68.8308
67.6775
66.5219
65.3642
64.2058
63.0469
61.8872
60.7275
59.5695
58.4137
57.2594
56.1058
54.9526
53.7997
52.6462
51.491
50.3337
49.1751
48.0161
46.8569
45.6974
44.5383
43.3809
42.2254
41.0709
39.917
38.7638
37.6111
36.4576
35.3023
34.1457
32.9881
31.829
30.668
29.506
28.3444
27.1834
26.0228
24.8629
23.7048
22.5489
21.3948
20.2417
19.0893
17.9378
16.7867
15.6352
14.4823
13.3283
12.1731
11.0165
9.85809
8.69825
7.53765
6.37656
5.21527
4.05431
2.89433
1.73555
0.578545
335.064
-2725.04
-703.452
780.53
748.552
309.264
154.858
224.704
295.446
300.781
280.875
270.638
271.548
273.865
273.426
271.519
269.862
268.735
267.739
266.636
265.45
264.266
263.108
261.962
260.81
259.652
258.495
257.341
256.183
255.024
253.866
252.71
251.554
250.398
249.24
248.084
246.928
245.77
244.613
243.46
242.306
241.149
239.99
238.832
237.675
236.52
235.366
234.21
233.052
231.895
230.739
229.584
228.426
227.268
226.112
224.956
223.799
222.643
221.487
220.331
219.175
218.018
216.861
215.704
214.547
213.393
212.238
211.08
209.922
208.765
207.609
206.454
205.297
204.14
202.983
201.826
200.67
199.514
198.358
197.201
196.044
194.888
193.732
192.575
191.418
190.261
189.105
187.95
186.794
185.636
184.476
183.319
182.164
181.01
179.855
178.699
177.54
176.381
175.223
174.067
172.914
171.76
170.604
169.446
168.285
167.126
165.97
164.816
163.662
162.508
161.351
160.192
159.032
157.874
156.719
155.565
154.411
153.255
152.097
150.939
149.78
148.622
147.466
146.313
145.159
144.003
142.846
141.686
140.527
139.369
138.214
137.06
135.906
134.751
133.594
132.436
131.277
130.119
128.962
127.807
126.652
125.497
124.341
123.183
122.025
120.867
119.71
118.554
117.4
116.245
115.09
113.933
112.774
111.616
110.458
109.301
108.146
106.992
105.837
104.682
103.526
102.368
101.209
100.05
98.893
97.7374
96.5827
95.4282
94.2736
93.1183
91.9616
90.803
89.6435
88.4844
87.3265
86.1701
85.0154
83.862
82.709
81.555
80.3993
79.242
78.0833
76.9236
75.7633
74.604
73.4468
72.292
71.1383
69.9847
68.8314
67.6779
66.5226
65.3648
64.2054
63.0458
61.8864
60.7273
59.5691
58.4131
57.2593
56.1064
54.9535
53.8002
52.6463
51.4912
50.3342
49.1753
48.0156
46.8561
45.6969
44.5379
43.3802
42.2244
41.0702
39.9166
38.7633
37.6103
36.457
35.3021
34.1453
32.9872
31.8281
30.6676
29.5058
28.3437
27.1825
26.0223
24.8629
23.7048
22.5484
21.3941
20.2414
19.0893
17.9376
16.7862
15.6347
14.482
13.3279
12.1724
11.0157
9.85748
8.69772
7.53697
6.37581
5.21459
4.05374
2.89381
1.7351
0.578219
335.07
-2725.04
-703.456
780.533
748.551
309.264
154.866
224.712
295.449
300.779
280.874
270.637
271.543
273.861
273.425
271.517
269.859
268.733
267.737
266.635
265.453
264.271
263.112
261.963
260.81
259.65
258.491
257.337
256.182
255.026
253.867
252.707
251.55
250.397
249.243
248.087
246.929
245.77
244.612
243.457
242.303
241.147
239.99
238.835
237.679
236.521
235.363
234.207
233.052
231.896
230.739
229.582
228.426
227.269
226.113
224.956
223.798
222.642
221.487
220.332
219.174
218.016
216.859
215.703
214.548
213.393
212.237
211.08
209.921
208.764
207.608
206.453
205.297
204.14
202.983
201.826
200.67
199.513
198.356
197.2
196.045
194.889
193.732
192.573
191.416
190.26
189.105
187.95
186.794
185.635
184.476
183.318
182.164
181.011
179.856
178.698
177.539
176.379
175.222
174.068
172.915
171.761
170.604
169.444
168.284
167.125
165.97
164.817
163.663
162.507
161.35
160.191
159.032
157.874
156.719
155.566
154.412
153.255
152.096
150.937
149.779
148.622
147.467
146.313
145.159
144.002
142.844
141.686
140.527
139.37
138.215
137.06
135.905
134.75
133.592
132.434
131.276
130.119
128.963
127.807
126.652
125.496
124.339
123.182
122.024
120.866
119.71
118.555
117.4
116.245
115.089
113.931
112.773
111.615
110.457
109.302
108.147
106.993
105.838
104.682
103.525
102.367
101.208
100.05
98.8926
97.7374
96.5834
95.4294
94.2743
93.1181
91.9605
90.8016
89.642
88.483
87.3256
86.17
85.0158
83.8626
82.7096
81.5556
80.3996
79.2414
78.0818
76.9219
75.7622
74.6033
73.4461
72.2915
71.1387
69.9859
68.8323
67.6779
66.5225
65.3649
64.2052
63.0449
61.8853
60.7268
59.5692
58.4132
57.2593
56.1069
54.9546
53.8014
52.647
51.4916
50.3347
49.176
48.0159
46.8559
45.6967
44.5382
43.3805
42.2243
41.0701
39.917
38.7638
37.6105
36.457
35.3025
34.1459
32.9875
31.8281
30.6679
29.5066
28.3446
27.1829
26.0226
24.8636
23.7059
22.5495
21.3949
20.242
19.0902
17.9386
16.7869
15.6351
14.4825
13.3285
12.1729
11.0159
9.85768
8.69805
7.53732
6.37608
5.21484
4.05404
2.89418
1.73549
0.578498
335.077
-2725.03
-703.456
780.529
748.557
309.266
154.853
224.701
295.45
300.784
280.87
270.634
271.548
273.866
273.426
271.516
269.863
268.74
267.738
266.631
265.45
264.271
263.111
261.96
260.809
259.652
258.493
257.335
256.181
255.026
253.87
252.711
251.552
250.396
249.241
248.085
246.929
245.773
244.616
243.458
242.301
241.145
239.989
238.834
237.679
236.522
235.364
234.209
233.053
231.895
230.737
229.581
228.427
227.271
226.113
224.955
223.798
222.643
221.488
220.332
219.174
218.016
216.859
215.705
214.55
213.394
212.237
211.079
209.922
208.764
207.608
206.453
205.297
204.141
202.984
201.827
200.669
199.512
198.356
197.202
196.047
194.891
193.732
192.572
191.415
190.261
189.107
187.952
186.794
185.635
184.475
183.318
182.165
181.012
179.857
178.699
177.538
176.378
175.222
174.069
172.916
171.762
170.604
169.444
168.284
167.126
165.971
164.818
163.664
162.507
161.349
160.19
159.032
157.876
156.721
155.566
154.411
153.254
152.095
150.937
149.779
148.623
147.468
146.314
145.158
144.002
142.844
141.686
140.528
139.372
138.216
137.061
135.905
134.748
133.591
132.434
131.276
130.12
128.964
127.809
126.653
125.496
124.339
123.181
122.024
120.867
119.712
118.557
117.402
116.245
115.088
113.93
112.772
111.615
110.458
109.303
108.148
106.994
105.839
104.683
103.524
102.366
101.208
100.05
98.8934
97.7384
96.5846
95.4308
94.2755
93.1184
91.96
90.8007
89.6411
88.4824
87.3254
86.1705
85.017
83.8639
82.7107
81.5563
80.4
79.2413
78.0811
76.9206
75.7612
74.603
73.4464
72.2918
71.1391
69.987
68.8336
67.6787
66.5224
65.3647
64.2051
63.0445
61.8844
60.7259
59.569
58.4136
57.2596
56.1071
54.9551
53.8023
52.6478
51.4918
50.3345
49.176
48.016
46.8555
45.6958
44.5375
43.3802
42.2239
41.0694
39.9163
38.7636
37.6102
36.4563
35.3017
34.1455
32.9872
31.8274
30.6669
29.5059
28.3443
27.1827
26.0221
24.8631
23.7056
22.5496
21.3949
20.2417
19.0898
17.9383
16.7867
15.6345
14.4818
13.3279
12.1724
11.0153
9.85684
8.69725
7.53663
6.37542
5.21419
4.05341
2.89359
1.73491
0.578298
335.064
-2725.04
-703.452
780.531
748.55
309.265
154.864
224.71
295.447
300.781
280.875
270.637
271.544
273.861
273.426
271.517
269.859
268.736
267.739
266.633
265.452
264.272
263.113
261.962
260.81
259.653
258.494
257.336
256.178
255.021
253.867
252.712
251.554
250.396
249.24
248.084
246.927
245.771
244.615
243.459
242.304
241.149
239.991
238.832
237.675
236.521
235.366
234.21
233.052
231.894
230.737
229.582
228.428
227.271
226.112
224.954
223.799
222.644
221.487
220.331
219.174
218.017
216.86
215.704
214.549
213.392
212.236
211.079
209.922
208.764
207.607
206.451
205.297
204.142
202.985
201.826
200.667
199.51
198.356
197.203
196.048
194.891
193.731
192.571
191.414
190.26
189.108
187.952
186.793
185.633
184.474
183.319
182.165
181.012
179.856
178.697
177.537
176.378
175.223
174.07
172.916
171.761
170.602
169.442
168.283
167.127
165.972
164.818
163.663
162.506
161.347
160.189
159.032
157.877
156.722
155.566
154.41
153.252
152.094
150.936
149.78
148.624
147.469
146.313
145.157
144
142.843
141.686
140.529
139.373
138.217
137.061
135.904
134.746
133.589
132.432
131.276
130.121
128.965
127.809
126.653
125.495
124.337
123.18
122.023
120.867
119.712
118.557
117.402
116.245
115.087
113.929
112.771
111.614
110.458
109.304
108.149
106.995
105.839
104.682
103.523
102.364
101.206
100.049
98.8937
97.7392
96.5853
95.4312
94.2757
93.1181
91.959
90.7993
89.6399
88.4815
87.3249
86.1705
85.0176
83.8649
82.7113
81.5562
80.3993
79.2405
78.08
76.9192
75.7596
74.6021
73.4465
72.2922
71.1394
69.9873
68.8344
67.6793
66.5223
65.3639
64.2045
63.0441
61.8838
60.7251
59.5686
58.4139
57.2603
56.1077
54.9556
53.803
52.6488
51.4925
50.3348
49.176
48.0163
46.8559
45.6958
44.5372
43.3802
42.2243
41.0696
39.9163
38.7638
37.6108
36.4567
35.3017
34.1456
32.9877
31.828
30.6672
29.506
28.3448
27.1836
26.023
24.8638
23.7063
22.5505
21.396
20.2427
19.0905
17.939
16.7874
15.6352
14.4821
13.3282
12.1727
11.0157
9.8571
8.69741
7.53682
6.37568
5.21451
4.05378
2.89399
1.73547
0.578442
335.078
-2725.04
-703.458
780.531
748.555
309.27
154.86
224.702
295.446
300.787
280.877
270.633
271.541
273.863
273.43
271.519
269.86
268.737
267.741
266.635
265.449
264.268
263.11
261.96
260.808
259.651
258.493
257.338
256.183
255.026
253.868
252.71
251.552
250.396
249.243
248.087
246.928
245.768
244.612
243.458
242.305
241.149
239.991
238.831
237.675
236.522
235.367
234.208
233.05
231.893
230.739
229.584
228.427
227.27
226.112
224.955
223.8
222.644
221.487
220.33
219.175
218.019
216.862
215.704
214.547
213.392
212.237
211.081
209.923
208.764
207.607
206.452
205.298
204.143
202.985
201.825
200.666
199.51
198.358
197.205
196.049
194.89
193.729
192.571
191.415
190.262
189.109
187.953
186.793
185.632
184.475
183.32
182.167
181.013
179.856
178.696
177.537
176.379
175.225
174.071
172.916
171.76
170.601
169.442
168.284
167.129
165.974
164.818
163.662
162.505
161.347
160.189
159.033
157.878
156.723
155.566
154.409
153.251
152.094
150.937
149.781
148.626
147.47
146.313
145.156
143.999
142.843
141.687
140.531
139.375
138.218
137.061
135.903
134.745
133.588
132.433
131.278
130.123
128.967
127.811
126.653
125.495
124.337
123.18
122.024
120.869
119.714
118.559
117.403
116.245
115.087
113.928
112.77
111.614
110.459
109.305
108.151
106.996
105.84
104.682
103.523
102.364
101.205
100.049
98.8944
97.7406
96.5867
95.4321
94.2761
93.1181
91.9585
90.7985
89.6392
88.4813
87.3253
86.1712
85.0186
83.8661
82.7124
81.5567
80.3989
79.2396
78.0792