/*--------------------------------*- C++ -*----------------------------------*\
| =========                 |                                                 |
| \\      /  F ield         | OpenFOAM: The Open Source CFD Toolbox           |
|  \\    /   O peration     | Version:  2406                                  |
|   \\  /    A nd           | Website:  www.openfoam.com                      |
|    \\/     M anipulation  |                                                 |
\*---------------------------------------------------------------------------*/
FoamFile
{
    version     2.0;
    format      ascii;
    arch        "LSB;label=32;scalar=64";
    class       surfaceScalarField;
    location    "0.75";
    object      phi;
}
// * * * * * * * * * * * * * * * * * * * * * * * * * * * * * * * * * * * * * //

dimensions      [0 3 -1 0 0 0 0];

oriented        oriented;

internalField   nonuniform List<scalar> 
12225
(
0.496249
1.08265e-06
0.496243
6.08547e-06
0.496235
7.59617e-06
0.496229
5.62257e-06
0.496225
4.63183e-06
0.49622
5.10054e-06
0.496214
5.6696e-06
0.496208
5.64483e-06
0.496202
5.89097e-06
0.496196
6.05792e-06
0.49619
5.94161e-06
0.496185
5.4497e-06
0.49618
5.0071e-06
0.496175
5.05519e-06
0.49617
5.1056e-06
0.496165
5.13375e-06
0.496159
5.22727e-06
0.496154
5.43604e-06
0.496148
5.61597e-06
0.496143
5.5549e-06
0.496138
5.37225e-06
0.496132
5.084e-06
0.496127
4.9474e-06
0.496122
5.21123e-06
0.496117
5.50719e-06
0.496111
5.55839e-06
0.496105
5.92083e-06
0.496099
6.52785e-06
0.496092
6.69845e-06
0.496086
6.46613e-06
0.49608
5.86891e-06
0.496075
5.11517e-06
0.49607
4.58838e-06
0.496066
4.35189e-06
0.496061
4.42554e-06
0.496057
4.73782e-06
0.496051
5.01582e-06
0.496046
5.09007e-06
0.496041
4.99736e-06
0.496037
4.80877e-06
0.496032
4.58494e-06
0.496028
4.36497e-06
0.496023
4.24735e-06
0.496019
4.36978e-06
0.496014
4.68044e-06
0.496009
4.98117e-06
0.496004
5.15503e-06
0.495999
5.13208e-06
0.495994
4.84862e-06
0.49599
4.46544e-06
0.495985
4.36346e-06
0.495981
4.68335e-06
0.495976
5.14362e-06
0.49597
5.43811e-06
0.495965
5.57321e-06
0.495959
5.68243e-06
0.495953
5.7278e-06
0.495948
5.62013e-06
0.495942
5.48032e-06
0.495937
5.52259e-06
0.495931
5.76511e-06
0.495925
6.03595e-06
0.495919
6.18488e-06
0.495912
6.23015e-06
0.495906
6.34031e-06
0.495899
6.60145e-06
0.495893
6.80661e-06
0.495886
6.67901e-06
0.49588
6.29712e-06
0.495874
6.04066e-06
0.495867
6.09662e-06
0.495861
6.2842e-06
0.495855
6.3893e-06
0.495848
6.40941e-06
0.495842
6.41851e-06
0.495836
6.41207e-06
0.495829
6.35167e-06
0.495823
6.23579e-06
0.495817
6.09225e-06
0.495811
5.96279e-06
0.495805
5.89773e-06
0.495799
5.90236e-06
0.495793
5.9155e-06
0.495787
5.88491e-06
0.495781
5.80812e-06
0.495776
5.6867e-06
0.49577
5.53068e-06
0.495765
5.40141e-06
0.49576
5.3486e-06
0.495754
5.3114e-06
0.495749
5.23271e-06
0.495744
5.17536e-06
0.495739
5.20041e-06
0.495733
5.24704e-06
0.495728
5.26256e-06
0.495723
5.30731e-06
0.495717
5.38312e-06
0.495712
5.32744e-06
0.495707
5.06153e-06
0.495702
4.7878e-06
0.495697
4.78049e-06
0.495692
5.02399e-06
0.495687
5.24503e-06
0.495682
5.23216e-06
0.495677
5.01355e-06
0.495672
4.76625e-06
0.495668
4.63148e-06
0.495663
4.63519e-06
0.495658
4.72999e-06
0.495653
4.85366e-06
0.495648
4.92672e-06
0.495644
4.86544e-06
0.495639
4.68316e-06
0.495634
4.52742e-06
0.49563
4.51408e-06
0.495625
4.58031e-06
0.495621
4.61003e-06
0.495616
4.61788e-06
0.495611
4.65166e-06
0.495607
4.60664e-06
0.495602
4.37358e-06
0.495598
4.10337e-06
0.495594
4.09452e-06
0.49559
4.37047e-06
0.495585
4.61149e-06
0.495581
4.5659e-06
0.495576
4.35176e-06
0.495572
4.24746e-06
0.495568
4.31081e-06
0.495563
4.37309e-06
0.495559
4.33653e-06
0.495555
4.34388e-06
0.49555
4.56183e-06
0.495545
4.91104e-06
0.49554
5.11748e-06
0.495535
5.00889e-06
0.49553
4.71927e-06
0.495526
4.54264e-06
0.495521
4.64306e-06
0.495516
4.92942e-06
0.495511
5.18828e-06
0.495506
5.26716e-06
0.495501
5.17695e-06
0.495496
5.06548e-06
0.49549
5.07239e-06
0.495485
5.19542e-06
0.49548
5.31078e-06
0.495475
5.31898e-06
0.495469
5.25858e-06
0.495464
5.23619e-06
0.495459
5.28592e-06
0.495453
5.33662e-06
0.495448
5.30852e-06
0.495443
5.20266e-06
0.495438
5.08767e-06
0.495433
5.04095e-06
0.495428
5.10994e-06
0.495422
5.28542e-06
0.495417
5.48067e-06
0.495411
5.54621e-06
0.495406
5.38758e-06
0.495401
5.06846e-06
0.495396
4.78106e-06
0.495392
4.67918e-06
0.495387
4.73345e-06
0.495382
4.77083e-06
0.495377
4.68503e-06
0.495373
4.57382e-06
0.495368
4.59907e-06
0.495363
4.73373e-06
0.495359
4.74819e-06
0.495354
4.49568e-06
0.49535
4.11178e-06
0.495346
3.84295e-06
0.495342
3.74374e-06
0.495339
3.68004e-06
0.495335
3.57436e-06
0.495332
3.48474e-06
0.495328
3.44222e-06
0.495325
3.35328e-06
0.495322
3.13744e-06
0.495319
2.84743e-06
0.495316
2.60404e-06
0.495314
2.45589e-06
0.495312
2.34193e-06
0.495309
2.1939e-06
0.495307
2.01401e-06
0.495306
1.84612e-06
0.495304
1.7315e-06
0.495302
1.67002e-06
0.495301
1.59999e-06
0.495299
1.43652e-06
0.495298
1.14816e-06
0.495297
8.29368e-07
0.495296
6.66973e-07
0.495296
7.45269e-07
0.495295
8.42976e-07
0.495294
7.38351e-07
0.495294
5.09104e-07
0.495293
3.87354e-07
0.495293
5.25069e-07
0.495292
6.65478e-07
0.495291
5.92248e-07
0.495291
4.00952e-07
0.495291
2.98089e-07
0.49529
3.16152e-07
0.49529
3.35027e-07
0.49529
2.80723e-07
0.49529
2.49679e-07
0.495289
3.06607e-07
0.495289
3.72789e-07
0.495288
3.6114e-07
0.495288
3.31808e-07
0.495288
4.25854e-07
0.495287
6.23107e-07
0.495286
7.16903e-07
0.495286
6.06397e-07
0.495285
4.20283e-07
0.495285
3.26743e-07
0.495285
3.01436e-07
0.495285
2.28571e-07
0.495284
1.08013e-07
0.495284
1.37866e-08
0.495284
-4.24186e-08
0.495285
-1.14775e-07
0.495285
-1.81333e-07
0.495285
-1.4255e-07
0.495285
-3.02533e-08
0.495285
5.79579e-08
0.495285
8.946e-08
0.495285
1.99561e-07
0.495284
4.06899e-07
0.495284
5.46661e-07
0.495283
4.98112e-07
0.495283
3.41807e-07
0.495283
2.49388e-07
0.495282
2.4023e-07
0.495282
2.01081e-07
0.495282
9.77261e-08
0.495282
5.97434e-08
0.495282
1.67634e-07
0.495281
3.09051e-07
0.495281
3.33147e-07
0.495281
2.54983e-07
0.495281
1.82526e-07
0.495281
1.62909e-07
0.49528
1.30963e-07
0.49528
7.79542e-08
0.49528
3.64339e-09
1.03181e-07
0.496254
2.18996e-07
0.496259
5.72109e-07
0.496265
1.93079e-06
0.496268
2.71222e-06
0.49627
2.55186e-06
0.496273
1.97677e-06
0.496277
1.88175e-06
0.496281
1.7286e-06
0.496285
1.56785e-06
0.49629
1.59489e-06
0.496294
1.94059e-06
0.496297
2.55177e-06
0.496299
2.70425e-06
0.496301
2.57808e-06
0.496304
2.6384e-06
0.496306
2.88995e-06
0.496308
2.93134e-06
0.496311
2.81828e-06
0.496314
3.02389e-06
0.496316
3.16481e-06
0.496318
3.1176e-06
0.49632
3.1933e-06
0.496322
3.09616e-06
0.496325
2.58832e-06
0.496328
2.34965e-06
0.496331
2.23242e-06
0.496335
1.78949e-06
0.49634
1.6216e-06
0.496345
1.89793e-06
0.496349
2.32758e-06
0.496352
2.81316e-06
0.496354
3.0818e-06
0.496356
3.16219e-06
0.496357
3.22891e-06
0.496358
3.13691e-06
0.49636
2.73374e-06
0.496363
2.26191e-06
0.496366
2.05961e-06
0.496369
2.11012e-06
0.496371
2.19977e-06
0.496374
2.26949e-06
0.496376
2.36368e-06
0.496377
2.46814e-06
0.496379
2.53131e-06
0.496381
2.47031e-06
0.496384
2.25764e-06
0.496387
2.13335e-06
0.49639
2.37248e-06
0.496392
2.846e-06
0.496393
3.13275e-06
0.496394
3.07499e-06
0.496396
2.87828e-06
0.496399
2.65277e-06
0.496402
2.29187e-06
0.496406
1.83977e-06
0.49641
1.60438e-06
0.496414
1.76871e-06
0.496417
2.14085e-06
0.49642
2.45144e-06
0.496423
2.63239e-06
0.496426
2.68874e-06
0.49643
2.59732e-06
0.496433
2.42458e-06
0.496437
2.30817e-06
0.496441
2.30967e-06
0.496446
2.4174e-06
0.49645
2.60222e-06
0.496454
2.76371e-06
0.496457
2.78586e-06
0.49646
2.70925e-06
0.496464
2.65815e-06
0.496468
2.61568e-06
0.496471
2.49401e-06
0.496476
2.37118e-06
0.49648
2.40043e-06
0.496483
2.52675e-06
0.496487
2.53769e-06
0.496491
2.38756e-06
0.496495
2.25813e-06
0.496499
2.30099e-06
0.496502
2.46633e-06
0.496505
2.58535e-06
0.496509
2.54007e-06
0.496512
2.38044e-06
0.496516
2.31366e-06
0.496519
2.47471e-06
0.496522
2.71932e-06
0.496524
2.78235e-06
0.496527
2.62799e-06
0.49653
2.44566e-06
0.496533
2.36071e-06
0.496536
2.37515e-06
0.496538
2.4818e-06
0.496541
2.60972e-06
0.496544
2.59043e-06
0.496547
2.40157e-06
0.49655
2.29204e-06
0.496553
2.44526e-06
0.496555
2.68378e-06
0.496557
2.71225e-06
0.496559
2.535e-06
0.496562
2.40087e-06
0.496565
2.43515e-06
0.496567
2.53056e-06
0.49657
2.54392e-06
0.496572
2.46994e-06
0.496574
2.41609e-06
0.496576
2.47095e-06
0.496579
2.62184e-06
0.496581
2.78417e-06
0.496583
2.87005e-06
0.496585
2.80567e-06
0.496587
2.55978e-06
0.496589
2.26117e-06
0.496591
2.18607e-06
0.496594
2.45138e-06
0.496595
2.80763e-06
0.496597
2.91744e-06
0.496599
2.76983e-06
0.496601
2.58548e-06
0.496603
2.42018e-06
0.496605
2.17422e-06
0.496607
1.95293e-06
0.496609
2.04175e-06
0.496612
2.44602e-06
0.496613
2.75572e-06
0.496615
2.62664e-06
0.496617
2.21884e-06
0.496619
1.97559e-06
0.496622
2.08403e-06
0.496624
2.31102e-06
0.496626
2.36234e-06
0.496628
2.2469e-06
0.496631
2.19131e-06
0.496634
2.32447e-06
0.496636
2.49921e-06
0.496638
2.49762e-06
0.496641
2.29907e-06
0.496643
2.08528e-06
0.496646
2.01754e-06
0.496649
2.11512e-06
0.496652
2.27967e-06
0.496655
2.3798e-06
0.496658
2.35663e-06
0.49666
2.29123e-06
0.496663
2.33913e-06
0.496666
2.54599e-06
0.496669
2.7651e-06
0.496671
2.8166e-06
0.496674
2.68455e-06
0.496676
2.50724e-06
0.496679
2.42533e-06
0.496682
2.4862e-06
0.496685
2.65701e-06
0.496687
2.86606e-06
0.496689
3e-06
0.496691
2.96757e-06
0.496693
2.79215e-06
0.496696
2.62182e-06
0.496699
2.59698e-06
0.496702
2.69419e-06
0.496704
2.74165e-06
0.496706
2.61771e-06
0.496709
2.40601e-06
0.496711
2.31251e-06
0.496714
2.4139e-06
0.496716
2.54274e-06
0.496718
2.49277e-06
0.49672
2.29832e-06
0.496723
2.20603e-06
0.496725
2.35038e-06
0.496727
2.57508e-06
0.496728
2.64658e-06
0.49673
2.55395e-06
0.496731
2.45961e-06
0.496732
2.41979e-06
0.496733
2.33808e-06
0.496735
2.18683e-06
0.496736
2.09866e-06
0.496737
2.17204e-06
0.496738
2.32839e-06
0.496738
2.42765e-06
0.496739
2.45148e-06
0.496739
2.4999e-06
0.496738
2.6336e-06
0.496738
2.79e-06
0.496737
2.8478e-06
0.496736
2.73384e-06
0.496735
2.48835e-06
0.496735
2.24837e-06
0.496734
2.15392e-06
0.496733
2.24029e-06
0.496732
2.37838e-06
0.496731
2.37388e-06
0.496729
2.22197e-06
0.496728
2.17736e-06
0.496726
2.41632e-06
0.496724
2.75112e-06
0.496722
2.82832e-06
0.496719
2.59114e-06
0.496718
2.36187e-06
0.496716
2.34663e-06
0.496714
2.40167e-06
0.496712
2.32876e-06
0.49671
2.18061e-06
0.496708
2.14333e-06
0.496707
2.24376e-06
0.496704
2.33636e-06
0.496702
2.36199e-06
0.4967
2.43001e-06
0.496698
2.61463e-06
0.496696
2.78624e-06
0.496693
2.75919e-06
0.496691
2.57077e-06
0.496689
2.45504e-06
0.496687
2.5141e-06
0.496685
2.58077e-06
0.496683
2.48644e-06
0.496681
2.30948e-06
0.496679
2.21675e-06
0.496677
2.20716e-06
0.496675
2.17975e-06
0.496673
2.14514e-06
0.496671
2.181e-06
0.496669
2.2376e-06
0.496666
2.21716e-06
0.496664
2.17945e-06
0.496662
2.23997e-06
0.496659
2.34079e-06
0.496657
2.29402e-06
0.496655
2.10233e-06
0.496654
1.99354e-06
0.496652
2.09447e-06
0.49665
2.26355e-06
0.496648
2.31235e-06
0.496646
2.2645e-06
0.496644
2.26536e-06
0.496642
2.32339e-06
0.49664
2.29445e-06
0.496638
2.13534e-06
0.496636
2.00522e-06
0.496634
2.04365e-06
0.496633
2.17008e-06
0.496631
2.22402e-06
0.496629
2.20411e-06
0.496627
2.22145e-06
0.496624
2.2951e-06
0.496622
2.30215e-06
0.49662
2.35313e-06
2.1896e-06
0.496252
7.20983e-07
0.496252
5.76173e-07
0.496253
4.07356e-07
0.496254
1.61192e-06
0.496255
2.31386e-06
0.496253
3.11272e-06
0.496252
3.54407e-06
0.49625
3.34419e-06
0.496249
3.14924e-06
0.496247
2.89118e-06
0.496247
2.53389e-06
0.496247
2.10959e-06
0.496248
1.8824e-06
0.496249
1.85339e-06
0.496249
1.79726e-06
0.496251
1.84547e-06
0.496251
2.00728e-06
0.496253
1.68783e-06
0.496254
1.19903e-06
0.496257
1.03007e-06
0.496258
1.19233e-06
0.49626
1.29344e-06
0.496262
1.51738e-06
0.496262
2.01884e-06
0.496262
2.53613e-06
0.496262
3.00769e-06
0.49626
2.99835e-06
0.49626
2.40503e-06
0.49626
1.91831e-06
0.49626
1.79298e-06
0.496261
1.64745e-06
0.496263
1.44001e-06
0.496265
1.34743e-06
0.496266
1.51405e-06
0.496268
1.91898e-06
0.496268
2.34081e-06
0.496268
2.54943e-06
0.496267
2.63406e-06
0.496267
2.69641e-06
0.496266
2.62458e-06
0.496266
2.41982e-06
0.496266
2.30661e-06
0.496266
2.36408e-06
0.496266
2.44562e-06
0.496266
2.39024e-06
0.496266
2.09696e-06
0.496267
1.65654e-06
0.496268
1.4259e-06
0.496269
1.66326e-06
0.49627
2.16846e-06
0.496271
2.53991e-06
0.496271
2.69569e-06
0.496271
2.8163e-06
0.49627
2.92525e-06
0.496269
2.85436e-06
0.496268
2.59637e-06
0.496267
2.40859e-06
0.496267
2.47112e-06
0.496267
2.67086e-06
0.496267
2.79737e-06
0.496267
2.75686e-06
0.496267
2.60662e-06
0.496266
2.51456e-06
0.496266
2.578e-06
0.496266
2.64093e-06
0.496266
2.48673e-06
0.496266
2.20765e-06
0.496267
2.11274e-06
0.496267
2.29185e-06
0.496267
2.54359e-06
0.496267
2.68471e-06
0.496267
2.69429e-06
0.496267
2.6262e-06
0.496267
2.56936e-06
0.496267
2.61787e-06
0.496267
2.74191e-06
0.496266
2.77888e-06
0.496266
2.64303e-06
0.496266
2.45882e-06
0.496266
2.37974e-06
0.496266
2.39745e-06
0.496266
2.39564e-06
0.496266
2.30109e-06
0.496267
2.12994e-06
0.496267
1.99336e-06
0.496267
2.03209e-06
0.496268
2.22863e-06
0.496268
2.35714e-06
0.496269
2.26146e-06
0.496269
2.05642e-06
0.496269
1.93116e-06
0.49627
1.92372e-06
0.49627
2.00335e-06
0.496271
2.15825e-06
0.496271
2.27759e-06
0.496271
2.18066e-06
0.496272
1.90101e-06
0.496272
1.72558e-06
0.496273
1.83542e-06
0.496274
2.07881e-06
0.496274
2.21309e-06
0.496274
2.18809e-06
0.496275
2.09985e-06
0.496275
2.01526e-06
0.496276
1.94008e-06
0.496277
1.8869e-06
0.496277
1.90051e-06
0.496277
2.00508e-06
0.496278
2.14293e-06
0.496279
2.20073e-06
0.496279
2.12709e-06
0.49628
1.97919e-06
0.496281
1.81963e-06
0.496281
1.67238e-06
0.496282
1.6287e-06
0.496283
1.82371e-06
0.496283
2.1846e-06
0.496284
2.38156e-06
0.496284
2.21845e-06
0.496285
1.91551e-06
0.496286
1.80509e-06
0.496286
1.89686e-06
0.496286
1.98292e-06
0.496286
2.03601e-06
0.496286
2.20926e-06
0.496286
2.48298e-06
0.496286
2.58184e-06
0.496286
2.35395e-06
0.496286
2.03741e-06
0.496286
2.01899e-06
0.496286
2.39635e-06
0.496286
2.86609e-06
0.496285
3.06345e-06
0.496284
2.91228e-06
0.496284
2.64216e-06
0.496284
2.4852e-06
0.496284
2.4664e-06
0.496284
2.4759e-06
0.496283
2.44141e-06
0.496283
2.36619e-06
0.496283
2.2856e-06
0.496283
2.2319e-06
0.496283
2.20521e-06
0.496283
2.15637e-06
0.496284
2.03453e-06
0.496284
1.88338e-06
0.496285
1.82438e-06
0.496286
1.90669e-06
0.496286
2.03747e-06
0.496287
2.09085e-06
0.496287
2.03407e-06
0.496288
1.92477e-06
0.496289
1.83594e-06
0.496289
1.82229e-06
0.49629
1.92459e-06
0.496291
2.13241e-06
0.496292
2.34408e-06
0.496292
2.41971e-06
0.496293
2.31669e-06
0.496293
2.15559e-06
0.496294
2.11138e-06
0.496294
2.22523e-06
0.496294
2.35269e-06
0.496294
2.33199e-06
0.496295
2.18882e-06
0.496295
2.11625e-06
0.496295
2.22796e-06
0.496295
2.40131e-06
0.496295
2.43589e-06
0.496295
2.32814e-06
0.496295
2.27076e-06
0.496295
2.37082e-06
0.496295
2.49733e-06
0.496295
2.48176e-06
0.496296
2.34651e-06
0.496296
2.22023e-06
0.496296
2.11844e-06
0.496296
1.95987e-06
0.496297
1.76127e-06
0.496297
1.66079e-06
0.496298
1.74272e-06
0.496298
1.92636e-06
0.496299
2.06791e-06
0.496299
2.11329e-06
0.496299
2.11017e-06
0.4963
2.12e-06
0.496301
2.15281e-06
0.496301
2.15639e-06
0.496302
2.06381e-06
0.496302
1.8629e-06
0.496303
1.63706e-06
0.496303
1.54512e-06
0.496304
1.69009e-06
0.496305
1.95745e-06
0.496305
2.10607e-06
0.496305
2.07831e-06
0.496305
2.08652e-06
0.496306
2.30591e-06
0.496306
2.58146e-06
0.496306
2.62348e-06
0.496306
2.42384e-06
0.496306
2.23444e-06
0.496306
2.19084e-06
0.496306
2.17678e-06
0.496306
2.07476e-06
0.496306
1.96339e-06
0.496307
1.97359e-06
0.496307
2.07057e-06
0.496307
2.10838e-06
0.496308
2.05742e-06
0.496308
2.05481e-06
0.496309
2.18701e-06
0.496309
2.32384e-06
0.496309
2.28256e-06
0.49631
2.10017e-06
0.49631
1.98966e-06
0.496311
2.03473e-06
0.496311
2.10026e-06
0.496312
2.07686e-06
0.496312
2.03184e-06
0.496312
2.04516e-06
0.496312
2.06785e-06
0.496312
2.05221e-06
0.496312
2.07202e-06
0.496312
2.17474e-06
0.496312
2.25903e-06
0.496312
2.25139e-06
0.496312
2.2661e-06
0.496312
2.42574e-06
0.496312
2.62395e-06
0.496311
2.65622e-06
0.496311
2.52175e-06
0.49631
2.41445e-06
0.49631
2.43651e-06
0.49631
2.48064e-06
0.49631
2.43425e-06
0.49631
2.36585e-06
0.49631
2.4089e-06
0.496309
2.53472e-06
0.496309
2.5821e-06
0.496308
2.49973e-06
0.496308
2.41726e-06
0.496308
2.43346e-06
0.496308
2.47396e-06
0.496307
2.44238e-06
0.496307
2.38408e-06
0.496307
2.3927e-06
0.496307
2.42141e-06
0.496307
2.44789e-06
2.34451e-06
0.496251
1.49496e-07
0.49625
1.27706e-06
0.49625
1.3344e-06
0.49625
6.89768e-07
0.496252
6.19374e-07
0.496255
6.41843e-07
0.496257
8.4982e-07
0.49626
1.12401e-06
0.496261
1.20448e-06
0.496263
1.28046e-06
0.496264
1.73656e-06
0.496264
1.97191e-06
0.496264
1.87004e-06
0.496264
1.88763e-06
0.496264
2.09119e-06
0.496263
2.24327e-06
0.496263
2.67716e-06
0.496261
3.17642e-06
0.496259
3.18032e-06
0.496258
2.66362e-06
0.496257
2.11764e-06
0.496256
1.95302e-06
0.496256
1.83666e-06
0.496256
1.57678e-06
0.496257
1.40871e-06
0.496259
1.47647e-06
0.49626
1.71175e-06
0.49626
2.08368e-06
0.49626
2.33714e-06
0.496259
2.41881e-06
0.496258
2.52396e-06
0.496257
2.57664e-06
0.496256
2.43196e-06
0.496255
2.2308e-06
0.496255
2.14437e-06
0.496255
2.17953e-06
0.496256
2.2457e-06
0.496256
2.31116e-06
0.496256
2.34624e-06
0.496257
2.26274e-06
0.496257
2.05692e-06
0.496258
1.9118e-06
0.496258
1.94693e-06
0.496258
2.11333e-06
0.496258
2.34601e-06
0.496258
2.5604e-06
0.496257
2.57438e-06
0.496256
2.32605e-06
0.496256
1.9919e-06
0.496256
1.70898e-06
0.496257
1.43781e-06
0.496259
1.21338e-06
0.49626
1.24466e-06
0.496262
1.58863e-06
0.496263
1.96742e-06
0.496263
2.09842e-06
0.496263
2.03208e-06
0.496264
1.96662e-06
0.496265
1.90676e-06
0.496266
1.75871e-06
0.496267
1.58062e-06
0.496268
1.51995e-06
0.496269
1.64298e-06
0.49627
1.89706e-06
0.49627
2.11085e-06
0.49627
2.08816e-06
0.496271
1.85785e-06
0.496271
1.69422e-06
0.496272
1.74995e-06
0.496272
1.86638e-06
0.496273
1.87201e-06
0.496274
1.83329e-06
0.496275
1.87808e-06
0.496275
1.97807e-06
0.496276
2.04059e-06
0.496277
2.05647e-06
0.496277
2.06094e-06
0.496278
2.05232e-06
0.496278
2.02453e-06
0.496279
1.98194e-06
0.496279
1.90532e-06
0.49628
1.79934e-06
0.496281
1.74393e-06
0.496281
1.79295e-06
0.496281
1.89149e-06
0.496281
1.97918e-06
0.496281
2.06359e-06
0.496281
2.11984e-06
0.496282
2.08804e-06
0.496282
2.02012e-06
0.496282
2.03564e-06
0.496281
2.11279e-06
0.496281
2.13643e-06
0.496281
2.13194e-06
0.496281
2.20638e-06
0.496281
2.29337e-06
0.496281
2.21889e-06
0.496281
2.01229e-06
0.49628
1.90559e-06
0.496281
2.01248e-06
0.496281
2.20635e-06
0.49628
2.31497e-06
0.49628
2.28747e-06
0.49628
2.17319e-06
0.49628
2.05569e-06
0.49628
2.01914e-06
0.49628
2.11143e-06
0.496279
2.30554e-06
0.496279
2.48485e-06
0.496279
2.48711e-06
0.496279
2.24942e-06
0.496279
1.92835e-06
0.496279
1.77299e-06
0.496278
1.8575e-06
0.496278
2.05762e-06
0.496278
2.28176e-06
0.496277
2.52139e-06
0.496277
2.65767e-06
0.496277
2.49113e-06
0.496277
2.08028e-06
0.496277
1.80204e-06
0.496277
1.91167e-06
0.496276
2.2214e-06
0.496276
2.37189e-06
0.496276
2.27732e-06
0.496276
2.12071e-06
0.496277
2.01278e-06
0.496277
1.86991e-06
0.496278
1.62913e-06
0.496278
1.42656e-06
0.496279
1.47123e-06
0.49628
1.77717e-06
0.496281
2.10273e-06
0.496282
2.18004e-06
0.496283
1.98438e-06
0.496283
1.72231e-06
0.496284
1.59463e-06
0.496285
1.64078e-06
0.496286
1.77365e-06
0.496286
1.88332e-06
0.496287
1.90628e-06
0.496287
1.85951e-06
0.496287
1.82945e-06
0.496288
1.88233e-06
0.496288
1.97333e-06
0.496288
2.00439e-06
0.496288
1.95443e-06
0.496288
1.89132e-06
0.496288
1.87205e-06
0.496288
1.89111e-06
0.496288
1.92716e-06
0.496288
1.98103e-06
0.496288
2.04781e-06
0.496287
2.0969e-06
0.496287
2.11616e-06
0.496287
2.14726e-06
0.496287
2.23629e-06
0.496287
2.35401e-06
0.496287
2.39823e-06
0.496287
2.30362e-06
0.496287
2.13817e-06
0.496287
2.05052e-06
0.496288
2.10337e-06
0.496288
2.18767e-06
0.496288
2.14831e-06
0.496288
1.98617e-06
0.496288
1.87207e-06
0.496289
1.92982e-06
0.496289
2.07368e-06
0.496289
2.13292e-06
0.496289
2.08817e-06
0.49629
2.0666e-06
0.49629
2.11409e-06
0.496291
2.11591e-06
0.496291
1.98407e-06
0.496291
1.80115e-06
0.496292
1.69065e-06
0.496292
1.64856e-06
0.496292
1.59958e-06
0.496292
1.55216e-06
0.496292
1.60159e-06
0.496293
1.78994e-06
0.496293
2.04043e-06
0.496293
2.23072e-06
0.496292
2.28718e-06
0.496292
2.21831e-06
0.496292
2.092e-06
0.496292
1.98326e-06
0.496293
1.92383e-06
0.496293
1.87415e-06
0.496292
1.75901e-06
0.496292
1.5882e-06
0.496293
1.51812e-06
0.496293
1.68551e-06
0.496293
1.98955e-06
0.496293
2.16964e-06
0.496293
2.13711e-06
0.496293
2.08376e-06
0.496293
2.16777e-06
0.496294
2.26659e-06
0.496294
2.18543e-06
0.496294
1.96223e-06
0.496295
1.79609e-06
0.496295
1.75591e-06
0.496296
1.73262e-06
0.496296
1.66117e-06
0.496296
1.63146e-06
0.496296
1.73435e-06
0.496297
1.8974e-06
0.496297
1.96342e-06
0.496297
1.90662e-06
0.496297
1.86885e-06
0.496298
1.94265e-06
0.496298
2.02082e-06
0.496298
1.95917e-06
0.496298
1.80363e-06
0.496299
1.71317e-06
0.496299
1.71635e-06
0.496299
1.70746e-06
0.4963
1.65471e-06
0.4963
1.63367e-06
0.496301
1.65139e-06
0.496301
1.62391e-06
0.496301
1.55662e-06
0.496302
1.56151e-06
0.496303
1.64581e-06
0.496303
1.66864e-06
0.496304
1.57843e-06
0.496305
1.52291e-06
0.496306
1.62362e-06
0.496307
1.78284e-06
0.496307
1.83342e-06
0.496308
1.77685e-06
0.496309
1.74732e-06
0.496309
1.79049e-06
0.49631
1.80618e-06
0.496311
1.72837e-06
0.496311
1.65069e-06
0.496312
1.69351e-06
0.496313
1.81935e-06
0.496314
1.8899e-06
0.496314
1.87442e-06
0.496315
1.8734e-06
0.496315
1.9296e-06
0.496316
1.96176e-06
0.496316
1.92195e-06
0.496317
1.87888e-06
0.496317
1.88337e-06
0.496318
1.91239e-06
1.91905e-06
0.496254
-2.68943e-07
0.496255
1.88398e-07
0.496255
1.34986e-06
0.496254
2.14165e-06
0.496253
1.75803e-06
0.496252
1.57626e-06
0.496251
1.70305e-06
0.49625
1.98583e-06
0.496249
2.09592e-06
0.496249
1.67409e-06
0.496249
1.47255e-06
0.496249
1.7923e-06
0.496249
2.16416e-06
0.496249
2.02079e-06
0.496249
1.59348e-06
0.49625
1.2972e-06
0.496252
1.39404e-06
0.496253
1.71292e-06
0.496254
1.82696e-06
0.496255
2.1575e-06
0.496255
2.3821e-06
0.496255
1.98249e-06
0.496255
1.56988e-06
0.496255
1.41296e-06
0.496255
1.30026e-06
0.496255
1.28063e-06
0.496256
1.29568e-06
0.496257
1.25976e-06
0.496258
1.33193e-06
0.496258
1.47328e-06
0.496259
1.57779e-06
0.49626
1.68534e-06
0.496261
1.75942e-06
0.496262
1.65331e-06
0.496262
1.37238e-06
0.496263
1.16522e-06
0.496264
1.16935e-06
0.496265
1.27104e-06
0.496266
1.39598e-06
0.496267
1.5475e-06
0.496267
1.68133e-06
0.496268
1.78243e-06
0.496268
1.85046e-06
0.496268
1.80984e-06
0.496269
1.70438e-06
0.496269
1.78373e-06
0.49627
2.11552e-06
0.49627
2.38221e-06
0.49627
2.32867e-06
0.496269
2.09158e-06
0.496269
1.91796e-06
0.496268
1.84516e-06
0.496267
1.78129e-06
0.496267
1.71838e-06
0.496268
1.72873e-06
0.496268
1.83167e-06
0.496268
1.97291e-06
0.496268
2.06456e-06
0.496268
2.00955e-06
0.496268
1.82943e-06
0.496267
1.7241e-06
0.496267
1.81435e-06
0.496267
1.95286e-06
0.496267
1.97051e-06
0.496267
1.92914e-06
0.496267
1.95584e-06
0.496267
2.03334e-06
0.496267
2.08244e-06
0.496266
2.06201e-06
0.496266
1.92775e-06
0.496266
1.67966e-06
0.496267
1.46396e-06
0.496267
1.43806e-06
0.496268
1.55245e-06
0.496268
1.62166e-06
0.496269
1.592e-06
0.496269
1.58365e-06
0.496269
1.67488e-06
0.49627
1.80321e-06
0.49627
1.86259e-06
0.49627
1.8011e-06
0.49627
1.66317e-06
0.49627
1.59055e-06
0.49627
1.68756e-06
0.49627
1.85662e-06
0.49627
1.89501e-06
0.496271
1.76021e-06
0.496271
1.58182e-06
0.496272
1.45773e-06
0.496272
1.4222e-06
0.496273
1.52266e-06
0.496273
1.72495e-06
0.496274
1.84538e-06
0.496274
1.77281e-06
0.496274
1.64427e-06
0.496275
1.63102e-06
0.496276
1.68737e-06
0.496276
1.68315e-06
0.496276
1.64699e-06
0.496277
1.694e-06
0.496277
1.81171e-06
0.496277
1.86501e-06
0.496278
1.76831e-06
0.496279
1.56739e-06
0.496279
1.39038e-06
0.49628
1.35505e-06
0.496281
1.48661e-06
0.496281
1.70226e-06
0.496282
1.86654e-06
0.496282
1.84825e-06
0.496283
1.58815e-06
0.496284
1.21e-06
0.496285
1.00671e-06
0.496285
1.16931e-06
0.496286
1.54908e-06
0.496286
1.84099e-06
0.496287
1.9385e-06
0.496287
1.9334e-06
0.496288
1.85039e-06
0.496289
1.64604e-06
0.496289
1.45564e-06
0.496289
1.55451e-06
0.496289
1.98744e-06
0.496289
2.42836e-06
0.496289
2.53577e-06
0.496289
2.32075e-06
0.496289
2.07118e-06
0.496289
2.00449e-06
0.496288
2.0922e-06
0.496288
2.19243e-06
0.496287
2.24783e-06
0.496286
2.31009e-06
0.496286
2.40094e-06
0.496286
2.43694e-06
0.496285
2.33366e-06
0.496285
2.12997e-06
0.496285
1.9527e-06
0.496284
1.88913e-06
0.496284
1.92975e-06
0.496284
2.00575e-06
0.496284
2.03646e-06
0.496284
1.97243e-06
0.496284
1.85157e-06
0.496284
1.78849e-06
0.496284
1.85359e-06
0.496284
1.9896e-06
0.496284
2.0804e-06
0.496284
2.07366e-06
0.496284
2.00055e-06
0.496284
1.90999e-06
0.496284
1.83664e-06
0.496284
1.81634e-06
0.496284
1.87284e-06
0.496284
1.97202e-06
0.496284
2.03087e-06
0.496284
1.99653e-06
0.496285
1.90431e-06
0.496285
1.83703e-06
0.496286
1.82126e-06
0.496286
1.78803e-06
0.496287
1.66073e-06
0.496287
1.47305e-06
0.496288
1.35926e-06
0.496289
1.40042e-06
0.49629
1.5132e-06
0.49629
1.54806e-06
0.49629
1.48851e-06
0.496291
1.47935e-06
0.496291
1.62407e-06
0.496292
1.83443e-06
0.496292
1.95321e-06
0.496292
1.96274e-06
0.496292
1.96117e-06
0.496292
1.97207e-06
0.496292
1.90897e-06
0.496292
1.74177e-06
0.496292
1.57191e-06
0.496292
1.50299e-06
0.496293
1.52375e-06
0.496293
1.567e-06
0.496293
1.61936e-06
0.496293
1.71616e-06
0.496293
1.86825e-06
0.496293
2.03193e-06
0.496293
2.13519e-06
0.496293
2.12044e-06
0.496293
1.97532e-06
0.496294
1.74731e-06
0.496294
1.53729e-06
0.496294
1.43798e-06
0.496295
1.43517e-06
0.496295
1.41766e-06
0.496295
1.34673e-06
0.496295
1.35572e-06
0.496296
1.58018e-06
0.496296
1.91694e-06
0.496296
2.11301e-06
0.496296
2.09854e-06
0.496296
2.04421e-06
0.496296
2.06889e-06
0.496296
2.0741e-06
0.496296
1.94187e-06
0.496297
1.7427e-06
0.496297
1.62884e-06
0.496297
1.61867e-06
0.496297
1.60814e-06
0.496297
1.55489e-06
0.496297
1.5448e-06
0.496297
1.64841e-06
0.496298
1.78469e-06
0.496298
1.8059e-06
0.496298
1.70095e-06
0.496298
1.61139e-06
0.496299
1.61691e-06
0.496299
1.62124e-06
0.496299
1.52239e-06
0.496299
1.3763e-06
0.4963
1.28678e-06
0.4963
1.23499e-06
0.496301
1.14989e-06
0.496301
1.06359e-06
0.496302
1.04654e-06
0.496303
1.05528e-06
0.496303
1.00769e-06
0.496304
9.56641e-07
0.496304
1.01627e-06
0.496305
1.14787e-06
0.496305
1.1931e-06
0.496306
1.12146e-06
0.496306
1.07855e-06
0.496307
1.15764e-06
0.496307
1.27108e-06
0.496308
1.30295e-06
0.496308
1.2812e-06
0.496309
1.31618e-06
0.496309
1.42144e-06
0.496309
1.49496e-06
0.49631
1.48477e-06
0.49631
1.47484e-06
0.49631
1.55267e-06
0.49631
1.66993e-06
0.496311
1.72439e-06
0.496311
1.72353e-06
0.496311
1.75154e-06
0.496311
1.81277e-06
0.496311
1.83424e-06
0.496311
1.80221e-06
0.496311
1.76511e-06
0.496311
1.75891e-06
1.7327e-06
0.496253
3.82272e-07
0.496252
9.98633e-07
0.496253
7.48068e-07
0.496254
7.06299e-07
0.496255
1.09488e-06
0.496255
1.08767e-06
0.496256
9.77883e-07
0.496257
7.86449e-07
0.496258
9.14399e-07
0.496259
1.0678e-06
0.496259
1.26976e-06
0.49626
1.33415e-06
0.49626
1.35955e-06
0.496261
1.62512e-06
0.49626
2.04675e-06
0.49626
1.87266e-06
0.49626
1.02922e-06
0.496261
7.689e-07
0.496262
1.03988e-06
0.496263
1.17103e-06
0.496264
1.34385e-06
0.496264
1.69659e-06
0.496264
2.12066e-06
0.496263
2.35657e-06
0.496262
2.24211e-06
0.496261
1.88205e-06
0.496261
1.64161e-06
0.49626
1.6497e-06
0.49626
1.6589e-06
0.49626
1.54664e-06
0.49626
1.62105e-06
0.49626
1.96358e-06
0.496259
2.26705e-06
0.496259
2.25624e-06
0.496258
1.95032e-06
0.496258
1.6386e-06
0.496257
1.50133e-06
0.496257
1.42265e-06
0.496257
1.30046e-06
0.496258
1.22106e-06
0.496258
1.29266e-06
0.496258
1.45831e-06
0.496259
1.56544e-06
0.496259
1.47418e-06
0.496259
1.2065e-06
0.49626
1.05196e-06
0.496261
1.20444e-06
0.496262
1.42513e-06
0.496263
1.43045e-06
0.496264
1.40007e-06
0.496264
1.64856e-06
0.496264
2.02119e-06
0.496263
2.06511e-06
0.496263
1.68614e-06
0.496264
1.26714e-06
0.496265
1.13302e-06
0.496265
1.21523e-06
0.496266
1.30775e-06
0.496267
1.36164e-06
0.496267
1.45803e-06
0.496267
1.66037e-06
0.496267
1.88337e-06
0.496267
1.89527e-06
0.496268
1.60179e-06
0.496268
1.26687e-06
0.496269
1.22656e-06
0.496269
1.46814e-06
0.49627
1.70738e-06
0.49627
1.797e-06
0.49627
1.81395e-06
0.49627
1.83026e-06
0.49627
1.83014e-06
0.496269
1.80253e-06
0.496269
1.75405e-06
0.496269
1.66605e-06
0.496269
1.55092e-06
0.496269
1.48958e-06
0.496269
1.52699e-06
0.49627
1.60101e-06
0.49627
1.63349e-06
0.49627
1.61604e-06
0.49627
1.57372e-06
0.49627
1.54713e-06
0.49627
1.59764e-06
0.49627
1.70805e-06
0.496271
1.73611e-06
0.496271
1.60185e-06
0.496271
1.41619e-06
0.496271
1.3121e-06
0.496271
1.29405e-06
0.496271
1.34954e-06
0.496272
1.51223e-06
0.496272
1.70316e-06
0.496272
1.72448e-06
0.496272
1.52717e-06
0.496272
1.30909e-06
0.496273
1.25962e-06
0.496273
1.36534e-06
0.496273
1.52637e-06
0.496273
1.69006e-06
0.496273
1.80571e-06
0.496273
1.78968e-06
0.496273
1.619e-06
0.496273
1.39591e-06
0.496274
1.27899e-06
0.496274
1.36026e-06
0.496273
1.58746e-06
0.496273
1.79843e-06
0.496273
1.85805e-06
0.496273
1.74942e-06
0.496273
1.52342e-06
0.496273
1.25388e-06
0.496273
1.09323e-06
0.496273
1.22149e-06
0.496273
1.60094e-06
0.496273
1.90974e-06
0.496273
1.87825e-06
0.496274
1.59403e-06
0.496274
1.3323e-06
0.496275
1.20547e-06
0.496275
1.16014e-06
0.496275
1.20786e-06
0.496276
1.42113e-06
0.496276
1.71609e-06
0.496277
1.83939e-06
0.496278
1.64776e-06
0.496279
1.29766e-06
0.49628
1.09349e-06
0.49628
1.19358e-06
0.496281
1.48568e-06
0.496282
1.73327e-06
0.496282
1.80363e-06
0.496283
1.73545e-06
0.496284
1.62301e-06
0.496284
1.51154e-06
0.496285
1.40987e-06
0.496286
1.335e-06
0.496286
1.29823e-06
0.496287
1.28549e-06
0.496288
1.28273e-06
0.496288
1.28657e-06
0.496289
1.27395e-06
0.49629
1.21705e-06
0.49629
1.14475e-06
0.496291
1.13645e-06
0.496292
1.22891e-06
0.496293
1.36393e-06
0.496293
1.45779e-06
0.496294
1.4865e-06
0.496294
1.48011e-06