/*--------------------------------*- C++ -*----------------------------------*\
| =========                 |                                                 |
| \\      /  F ield         | OpenFOAM: The Open Source CFD Toolbox           |
|  \\    /   O peration     | Version:  2406                                  |
|   \\  /    A nd           | Website:  www.openfoam.com                      |
|    \\/     M anipulation  |                                                 |
\*---------------------------------------------------------------------------*/
FoamFile
{
    version     2.0;
    format      ascii;
    arch        "LSB;label=32;scalar=64";
    class       volVectorField;
    location    "0.75";
    object      U;
}
// * * * * * * * * * * * * * * * * * * * * * * * * * * * * * * * * * * * * * //

dimensions      [0 1 -1 0 0 0 0];

internalField   nonuniform List<vector> 
6250
(
(48.7076 5.96029e-05 0)
(82.7457 0.000466948 0)
(71.224 0.000754042 0)
(58.973 0.00075752 0)
(58.1665 0.00069654 0)
(61.4883 0.000723254 0)
(62.9648 0.000822785 0)
(62.5417 0.000916558 0)
(61.9451 0.00100616 0)
(61.8418 0.00107991 0)
(61.978 0.00109383 0)
(62.0599 0.00100595 0)
(62.0504 0.000847252 0)
(62.022 0.000721208 0)
(62.0133 0.000667137 0)
(62.0178 0.000680252 0)
(62.0215 0.000739358 0)
(62.021 0.000831743 0)
(62.0191 0.000914941 0)
(62.0178 0.000931552 0)
(62.0173 0.000880978 0)
(62.0169 0.000792105 0)
(62.0163 0.000707663 0)
(62.0157 0.000677924 0)
(62.0149 0.000712758 0)
(62.0142 0.000782756 0)
(62.0136 0.000894395 0)
(62.0128 0.00102338 0)
(62.0119 0.00108984 0)
(62.0111 0.00105834 0)
(62.0103 0.000940571 0)
(62.0096 0.000777714 0)
(62.009 0.000629144 0)
(62.0085 0.000539825 0)
(62.0079 0.000535376 0)
(62.0074 0.000616336 0)
(62.0068 0.00074467 0)
(62.0061 0.000858914 0)
(62.0055 0.000916237 0)
(62.0049 0.000912168 0)
(62.0043 0.000866149 0)
(62.0037 0.000798091 0)
(62.0032 0.000727178 0)
(62.0027 0.000680659 0)
(62.0021 0.000678305 0)
(62.0015 0.00071346 0)
(62.0008 0.000759 0)
(62.0002 0.000782006 0)
(61.9996 0.000763875 0)
(61.999 0.00072383 0)
(61.9985 0.000711824 0)
(61.9979 0.000762458 0)
(61.9973 0.00086092 0)
(61.9966 0.00096481 0)
(61.9959 0.00104675 0)
(61.9952 0.0011001 0)
(61.9945 0.00111908 0)
(61.9938 0.00110029 0)
(61.9931 0.00106134 0)
(61.9924 0.00103397 0)
(61.9917 0.00103539 0)
(61.991 0.00105883 0)
(61.9902 0.00108736 0)
(61.9894 0.00110974 0)
(61.9886 0.0011291 0)
(61.9878 0.00115418 0)
(61.987 0.00117639 0)
(61.9861 0.00117114 0)
(61.9853 0.00113467 0)
(61.9846 0.00109955 0)
(61.9838 0.0010957 0)
(61.983 0.00111579 0)
(61.9822 0.00113626 0)
(61.9815 0.00115243 0)
(61.9807 0.00117396 0)
(61.9798 0.00120023 0)
(61.979 0.00121832 0)
(61.9783 0.00121821 0)
(61.9775 0.00119893 0)
(61.9767 0.00116536 0)
(61.976 0.00112638 0)
(61.9753 0.00109155 0)
(61.9745 0.00106641 0)
(61.9738 0.00105223 0)
(61.9731 0.00104469 0)
(61.9723 0.00103053 0)
(61.9716 0.000998034 0)
(61.9709 0.000955063 0)
(61.9703 0.000921839 0)
(61.9696 0.000903627 0)
(61.9689 0.000888433 0)
(61.9683 0.000872675 0)
(61.9677 0.000865723 0)
(61.967 0.000868584 0)
(61.9663 0.000872925 0)
(61.9657 0.000879345 0)
(61.965 0.000890056 0)
(61.9643 0.000887626 0)
(61.9637 0.000852198 0)
(61.9631 0.000800419 0)
(61.9625 0.000776526 0)
(61.9619 0.000798965 0)
(61.9612 0.000837021 0)
(61.9606 0.00084715 0)
(61.9599 0.000817205 0)
(61.9593 0.00076965 0)
(61.9587 0.000733155 0)
(61.9582 0.000718386 0)
(61.9576 0.000717056 0)
(61.957 0.000716537 0)
(61.9564 0.000710263 0)
(61.9557 0.000697655 0)
(61.9551 0.000683802 0)
(61.9546 0.000679373 0)
(61.954 0.000689309 0)
(61.9534 0.000701384 0)
(61.9529 0.000700684 0)
(61.9523 0.000693927 0)
(61.9517 0.000700022 0)
(61.9511 0.000717021 0)
(61.9506 0.000723513 0)
(61.95 0.000718083 0)
(61.9495 0.000728206 0)
(61.949 0.000767492 0)
(61.9484 0.000809869 0)
(61.9478 0.000825175 0)
(61.9473 0.000820395 0)
(61.9468 0.000824107 0)
(61.9462 0.000843305 0)
(61.9457 0.000858857 0)
(61.9451 0.000861224 0)
(61.9446 0.000868927 0)
(61.9441 0.000903644 0)
(61.9435 0.00095625 0)
(61.9428 0.000990119 0)
(61.9422 0.000980055 0)
(61.9416 0.000939656 0)
(61.941 0.000905909 0)
(61.9404 0.000902547 0)
(61.9398 0.00092432 0)
(61.9392 0.000950459 0)
(61.9385 0.000963406 0)
(61.9379 0.00095715 0)
(61.9373 0.000938312 0)
(61.9366 0.000919809 0)
(61.936 0.000907648 0)
(61.9353 0.000895161 0)
(61.9347 0.000875838 0)
(61.934 0.000857335 0)
(61.9333 0.000854112 0)
(61.9327 0.000868077 0)
(61.932 0.000883849 0)
(61.9314 0.000883159 0)
(61.9307 0.000859265 0)
(61.93 0.000819997 0)
(61.9294 0.000783437 0)
(61.9288 0.00077032 0)
(61.9281 0.000791121 0)
(61.9275 0.000833789 0)
(61.9268 0.000867761 0)
(61.9261 0.000867465 0)
(61.9254 0.000836177 0)
(61.9248 0.000803848 0)
(61.9242 0.000797034 0)
(61.9236 0.000812243 0)
(61.923 0.000823165 0)
(61.9224 0.000814302 0)
(61.9219 0.000800853 0)
(61.9213 0.000809226 0)
(61.9207 0.000840332 0)
(61.9201 0.000861973 0)
(61.9195 0.000843683 0)
(61.919 0.000792183 0)
(61.9185 0.000741495 0)
(61.918 0.000712549 0)
(61.9176 0.000696725 0)
(61.9171 0.000679021 0)
(61.9167 0.000659957 0)
(61.9163 0.000645257 0)
(61.9158 0.000627686 0)
(61.9154 0.000593992 0)
(61.915 0.000544225 0)
(61.9147 0.000491016 0)
(61.9144 0.000441702 0)
(61.9141 0.000391876 0)
(61.9138 0.000337315 0)
(61.9135 0.000285078 0)
(61.9133 0.000248808 0)
(61.9131 0.000233963 0)
(61.9129 0.000231153 0)
(61.9127 0.000223791 0)
(61.9125 0.000199261 0)
(61.9123 0.000156661 0)
(61.9122 0.000109617 0)
(61.9121 7.74504e-05 0)
(61.912 6.53638e-05 0)
(61.9119 5.59154e-05 0)
(61.9118 2.72104e-05 0)
(61.9117 -1.44337e-05 0)
(61.9117 -3.6594e-05 0)
(61.9116 -2.62206e-05 0)
(61.9115 -5.98222e-06 0)
(61.9115 -5.21756e-06 0)
(61.9114 -2.39914e-05 0)
(61.9114 -4.12136e-05 0)
(61.9113 -4.86722e-05 0)
(61.9113 -5.84548e-05 0)
(61.9112 -7.75746e-05 0)
(61.9112 -9.78638e-05 0)
(61.9112 -0.000111798 0)
(61.9111 -0.000124449 0)
(61.9111 -0.000142666 0)
(61.911 -0.000156939 0)
(61.911 -0.000149043 0)
(61.9109 -0.000119721 0)
(61.9108 -9.4377e-05 0)
(61.9108 -9.39278e-05 0)
(61.9107 -0.000107794 0)
(61.9107 -0.000111053 0)
(61.9106 -0.000100801 0)
(61.9106 -9.71368e-05 0)
(61.9106 -0.000110595 0)
(61.9106 -0.000130039 0)
(61.9106 -0.000146403 0)
(61.9106 -0.000161239 0)
(61.9106 -0.000172093 0)
(61.9106 -0.000171164 0)
(61.9106 -0.00015885 0)
(61.9106 -0.000146344 0)
(61.9106 -0.000134478 0)
(61.9106 -0.000113058 0)
(61.9106 -8.3348e-05 0)
(61.9105 -6.53742e-05 0)
(61.9104 -7.37787e-05 0)
(61.9104 -9.65372e-05 0)
(61.9103 -0.000110225 0)
(61.9103 -0.000109053 0)
(61.9103 -0.000106291 0)
(61.9102 -0.00010991 0)
(61.9102 -0.000111049 0)
(61.9102 -0.00010068 0)
(61.9102 -8.70094e-05 0)
(61.9102 -8.58611e-05 0)
(61.9101 -9.83929e-05 0)
(61.9101 -0.00011163 0)
(61.9101 -0.000120211 0)
(61.9101 -0.000132162 0)
(61.91 -0.000146383 0)
(61.91 -0.000160945 0)
(61.91 -0.000168054 0)
(48.708 5.58132e-05 0)
(82.7466 0.000421582 0)
(71.2271 0.000725726 0)
(58.9774 0.000703642 0)
(58.172 0.000554942 0)
(61.4942 0.000431258 0)
(62.9722 0.000372957 0)
(62.5501 0.000338429 0)
(61.9548 0.000328707 0)
(61.8528 0.00034519 0)
(61.9903 0.00038722 0)
(62.0734 0.000454149 0)
(62.0648 0.000508653 0)
(62.0373 0.000564282 0)
(62.0296 0.000597972 0)
(62.035 0.000605227 0)
(62.0397 0.000568175 0)
(62.04 0.000516576 0)
(62.0392 0.000514787 0)
(62.039 0.000535978 0)
(62.0395 0.000552128 0)
(62.0399 0.000567666 0)
(62.0402 0.000578133 0)
(62.0404 0.000568561 0)
(62.0408 0.000548174 0)
(62.0412 0.000504445 0)
(62.0416 0.000465682 0)
(62.0422 0.000486246 0)
(62.0428 0.000538832 0)
(62.0434 0.00059259 0)
(62.0439 0.000623823 0)
(62.0441 0.000624315 0)
(62.0444 0.000612296 0)
(62.0445 0.00059808 0)
(62.0446 0.000574126 0)
(62.0448 0.000524389 0)
(62.0451 0.000455873 0)
(62.0455 0.000392517 0)
(62.0459 0.000347874 0)
(62.0462 0.000322029 0)
(62.0466 0.000316553 0)
(62.0468 0.000333699 0)
(62.0471 0.000368157 0)
(62.0473 0.000411247 0)
(62.0475 0.000448514 0)
(62.0478 0.000466838 0)
(62.0482 0.000474069 0)
(62.0486 0.000482803 0)
(62.0489 0.000478871 0)
(62.0491 0.000443676 0)
(62.0492 0.000395039 0)
(62.0494 0.000365946 0)
(62.0497 0.000353959 0)
(62.05 0.000331043 0)
(62.0504 0.000296025 0)
(62.051 0.000278795 0)
(62.0515 0.00029147 0)
(62.052 0.000312159 0)
(62.0523 0.000325282 0)
(62.0527 0.00034144 0)
(62.0531 0.000367568 0)
(62.0535 0.000391411 0)
(62.0539 0.000402812 0)
(62.0544 0.000407217 0)
(62.0549 0.000418653 0)
(62.0554 0.000447329 0)
(62.056 0.000483138 0)
(62.0565 0.000495923 0)
(62.0569 0.000472311 0)
(62.0573 0.000440543 0)
(62.0578 0.000433323 0)
(62.0582 0.000442589 0)
(62.0587 0.000439999 0)
(62.0592 0.000423363 0)
(62.0597 0.000410936 0)
(62.0602 0.000404223 0)
(62.0607 0.000387824 0)
(62.0611 0.000360074 0)
(62.0616 0.000339591 0)
(62.0621 0.000342021 0)
(62.0625 0.000364914 0)
(62.063 0.000392443 0)
(62.0634 0.000407694 0)
(62.0638 0.000407743 0)
(62.0643 0.000407844 0)
(62.0647 0.000420121 0)
(62.065 0.000434478 0)
(62.0654 0.000436142 0)
(62.0657 0.00042948 0)
(62.0661 0.00042624 0)
(62.0664 0.000426207 0)
(62.0668 0.000427792 0)
(62.0671 0.000437203 0)
(62.0675 0.000450302 0)
(62.0678 0.000450188 0)
(62.0681 0.000437931 0)
(62.0685 0.000437318 0)
(62.0689 0.00045427 0)
(62.0692 0.000462197 0)
(62.0695 0.000444797 0)
(62.0697 0.000424233 0)
(62.0701 0.000428459 0)
(62.0704 0.000452521 0)
(62.0708 0.000469509 0)
(62.0711 0.000465504 0)
(62.0714 0.000450146 0)
(62.0717 0.000441287 0)
(62.0719 0.000448825 0)
(62.0722 0.000470742 0)
(62.0724 0.000498169 0)
(62.0727 0.000519293 0)
(62.073 0.000519964 0)
(62.0732 0.000493556 0)
(62.0735 0.000457263 0)
(62.0738 0.000442996 0)
(62.0741 0.000459532 0)
(62.0743 0.00047939 0)
(62.0745 0.000476678 0)
(62.0747 0.000456995 0)
(62.075 0.000432617 0)
(62.0753 0.000394573 0)
(62.0755 0.000338446 0)
(62.0757 0.000295154 0)
(62.076 0.000298308 0)
(62.0763 0.000330179 0)
(62.0766 0.000336486 0)
(62.0768 0.000295126 0)
(62.077 0.000240694 0)
(62.0773 0.000215295 0)
(62.0776 0.000219228 0)
(62.0779 0.000223463 0)
(62.0781 0.000214708 0)
(62.0783 0.000210488 0)
(62.0787 0.000229746 0)
(62.079 0.000262048 0)
(62.0794 0.00027768 0)
(62.0797 0.000264057 0)
(62.0799 0.000240718 0)
(62.0802 0.000236195 0)
(62.0806 0.000259833 0)
(62.0809 0.000298615 0)
(62.0813 0.00033248 0)
(62.0817 0.000348477 0)
(62.082 0.00034907 0)
(62.0824 0.000351721 0)
(62.0827 0.000373001 0)
(62.0831 0.000409193 0)
(62.0834 0.000439164 0)
(62.0837 0.000448486 0)
(62.084 0.000443288 0)
(62.0844 0.000438528 0)
(62.0847 0.000441431 0)
(62.0851 0.000450824 0)
(62.0854 0.000464448 0)
(62.0857 0.000479506 0)
(62.086 0.000490608 0)
(62.0862 0.000494057 0)
(62.0865 0.000493782 0)
(62.0869 0.000497313 0)
(62.0872 0.00050383 0)
(62.0876 0.000500094 0)
(62.0879 0.000473442 0)
(62.0882 0.000429429 0)
(62.0884 0.000391479 0)
(62.0887 0.000378318 0)
(62.0891 0.000383244 0)
(62.0893 0.000381717 0)
(62.0896 0.000360949 0)
(62.0898 0.000335335 0)
(62.0902 0.000326235 0)
(62.0905 0.000331193 0)
(62.0908 0.000325941 0)
(62.091 0.000298803 0)
(62.0911 0.000267511 0)
(62.0913 0.000253188 0)
(62.0915 0.00025182 0)
(62.0916 0.00024583 0)
(62.0918 0.000233752 0)
(62.0919 0.000229443 0)
(62.0921 0.000235854 0)
(62.0922 0.000238846 0)
(62.0923 0.000229678 0)
(62.0923 0.000218703 0)
(62.0923 0.000221088 0)
(62.0923 0.000237626 0)
(62.0923 0.000254283 0)
(62.0922 0.00025671 0)
(62.0921 0.000242317 0)
(62.0919 0.000220112 0)
(62.0919 0.000202437 0)
(62.0918 0.000195993 0)
(62.0917 0.000195356 0)
(62.0916 0.000185864 0)
(62.0914 0.000160656 0)
(62.0912 0.0001359 0)
(62.091 0.000137597 0)
(62.0909 0.000166905 0)
(62.0906 0.00018993 0)
(62.0903 0.000179725 0)
(62.09 0.000153921 0)
(62.0898 0.000146568 0)
(62.0896 0.000160543 0)
(62.0894 0.000167299 0)
(62.0891 0.000152989 0)
(62.0889 0.000137204 0)
(62.0887 0.000140066 0)
(62.0884 0.000154394 0)
(62.0882 0.000163956 0)
(62.0879 0.000170388 0)
(62.0877 0.000188037 0)
(62.0874 0.000217821 0)
(62.0871 0.000240624 0)
(62.0868 0.000243379 0)
(62.0865 0.000238976 0)
(62.0863 0.000247028 0)
(62.086 0.000262187 0)
(62.0858 0.000259469 0)
(62.0855 0.000231945 0)
(62.0853 0.000200959 0)
(62.0851 0.000183602 0)
(62.0848 0.000172279 0)
(62.0846 0.000157182 0)
(62.0843 0.000146086 0)
(62.084 0.000145103 0)
(62.0837 0.000144189 0)
(62.0834 0.000136826 0)
(62.0831 0.000134847 0)
(62.0829 0.000148064 0)
(62.0826 0.000161869 0)
(62.0823 0.000159569 0)
(62.082 0.000150737 0)
(62.0818 0.000157333 0)
(62.0816 0.000178901 0)
(62.0814 0.000192651 0)
(62.0812 0.000187261 0)
(62.0809 0.000176399 0)
(62.0807 0.000174448 0)
(62.0804 0.000174905 0)
(62.0801 0.000164111 0)
(62.0799 0.000146804 0)
(62.0796 0.000142174 0)
(62.0794 0.000154988 0)
(62.0792 0.00016733 0)
(62.079 0.000165712 0)
(62.0787 0.000160145 0)
(62.0785 0.000163912 0)
(62.0782 0.000172473 0)
(62.0779 0.000175548 0)
(62.0777 0.000174832 0)
(62.0772 0.000183324 0)
(48.7079 7.23467e-05 0)
(82.7461 2.05336e-05 0)
(71.2259 -2.36849e-05 0)
(58.9758 5.00243e-05 0)
(58.17 0.00016496 0)
(61.4923 0.000263739 0)
(62.9692 0.00029237 0)
(62.5467 0.000272484 0)
(61.9505 0.000232187 0)
(61.8478 0.000187457 0)
(61.9847 0.000149034 0)
(62.0673 0.000119726 0)
(62.0585 9.23803e-05 0)
(62.0308 8.46435e-05 0)
(62.0229 8.74099e-05 0)
(62.0281 0.000117501 0)
(62.0327 0.000157306 0)
(62.0328 0.000145412 0)
(62.0318 0.000116444 0)
(62.0316 0.000107575 0)
(62.032 0.000115038 0)
(62.0324 0.000127214 0)
(62.0328 0.000137682 0)
(62.0328 0.000138342 0)
(62.0328 0.000153316 0)
(62.0328 0.000170551 0)
(62.0326 0.000124908 0)
(62.0325 3.82491e-05 0)
(62.0324 -2.69947e-05 0)
(62.0324 -3.25934e-05 0)
(62.0326 -1.65241e-06 0)
(62.0327 3.09377e-05 0)
(62.033 7.23395e-05 0)
(62.0332 0.000129898 0)
(62.0334 0.000181716 0)
(62.0335 0.000191535 0)
(62.0335 0.000164859 0)
(62.0334 0.000151452 0)
(62.0334 0.000172435 0)
(62.0333 0.000199558 0)
(62.0332 0.000211497 0)
(62.0333 0.000220592 0)
(62.0333 0.000236229 0)
(62.0333 0.000243364 0)
(62.0333 0.000219408 0)
(62.0333 0.000160848 0)
(62.0333 0.00010432 0)
(62.0334 0.00010804 0)
(62.0336 0.000188152 0)
(62.0337 0.000293468 0)
(62.0338 0.00036281 0)
(62.0338 0.000379746 0)
(62.0339 0.000358943 0)
(62.0338 0.000310716 0)
(62.0337 0.000244751 0)
(62.0335 0.000191244 0)
(62.0334 0.000184535 0)
(62.0334 0.000225488 0)
(62.0334 0.000282484 0)
(62.0333 0.000323839 0)
(62.0333 0.000331616 0)
(62.0333 0.000303749 0)
(62.0333 0.000262056 0)
(62.0333 0.000235276 0)
(62.0332 0.00022474 0)
(62.0332 0.000211961 0)
(62.0332 0.000196708 0)
(62.0333 0.000196377 0)
(62.0334 0.000212942 0)
(62.0334 0.000229725 0)
(62.0334 0.000235208 0)
(62.0334 0.000228806 0)
(62.0334 0.000214208 0)
(62.0334 0.000202754 0)
(62.0334 0.000208715 0)
(62.0333 0.000228197 0)
(62.0333 0.000237969 0)
(62.0333 0.000226604 0)
(62.0332 0.00021158 0)
(62.0332 0.000214755 0)
(62.0332 0.000234101 0)
(62.0332 0.000248483 0)
(62.0333 0.000238921 0)
(62.0333 0.000204805 0)
(62.0333 0.000170915 0)
(62.0334 0.000169214 0)
(62.0334 0.000199036 0)
(62.0335 0.000221647 0)
(62.0336 0.000209519 0)
(62.0336 0.000178834 0)
(62.0337 0.000159185 0)
(62.0337 0.000158291 0)
(62.0338 0.000170746 0)
(62.0338 0.000190137 0)
(62.0339 0.000198547 0)
(62.0339 0.000177134 0)
(62.0339 0.000141154 0)
(62.034 0.000132916 0)
(62.0341 0.000166055 0)
(62.0342 0.000205043 0)
(62.0343 0.000211846 0)
(62.0343 0.000188138 0)
(62.0343 0.000161343 0)
(62.0344 0.000148928 0)
(62.0345 0.00014831 0)
(62.0345 0.000150343 0)
(62.0346 0.00015221 0)
(62.0347 0.000158071 0)
(62.0347 0.000170051 0)
(62.0348 0.000182412 0)
(62.0349 0.000186951 0)
(62.035 0.000178343 0)
(62.0351 0.000153493 0)
(62.0352 0.00011925 0)
(62.0352 0.000103045 0)
(62.0353 0.000132441 0)
(62.0354 0.000193123 0)
(62.0354 0.000233454 0)
(62.0355 0.000226366 0)
(62.0356 0.000200491 0)
(62.0357 0.000192609 0)
(62.0357 0.000199785 0)
(62.0357 0.000205153 0)
(62.0357 0.000221259 0)
(62.0357 0.000268776 0)
(62.0358 0.000327192 0)
(62.0358 0.000348137 0)
(62.0358 0.000319706 0)
(62.0358 0.000287239 0)
(62.0358 0.000299373 0)
(62.0358 0.000350977 0)
(62.0358 0.000393038 0)
(62.0357 0.00039057 0)
(62.0356 0.000357742 0)
(62.0355 0.000333135 0)
(62.0355 0.000332922 0)
(62.0355 0.0003399 0)
(62.0355 0.000332967 0)
(62.0354 0.000311123 0)
(62.0354 0.000286827 0)
(62.0354 0.000269315 0)
(62.0354 0.000260083 0)
(62.0354 0.000254858 0)
(62.0354 0.000245723 0)
(62.0354 0.000230209 0)
(62.0355 0.000219517 0)
(62.0355 0.000227693 0)
(62.0356 0.000250446 0)
(62.0358 0.000264978 0)
(62.0358 0.000254268 0)
(62.0359 0.000223604 0)
(62.036 0.000191718 0)
(62.036 0.000174663 0)
(62.0361 0.000180247 0)
(62.0362 0.000206675 0)
(62.0363 0.000239037 0)
(62.0364 0.000252978 0)
(62.0365 0.000233206 0)
(62.0365 0.000191589 0)
(62.0366 0.000160808 0)
(62.0367 0.00016415 0)
(62.0367 0.000191192 0)
(62.0368 0.000209066 0)
(62.0368 0.000200388 0)
(62.0368 0.000183781 0)
(62.0368 0.000190232 0)
(62.0369 0.000222894 0)
(62.0369 0.000251664 0)
(62.0369 0.000251651 0)
(62.0369 0.00023659 0)
(62.0369 0.000241587 0)
(62.0369 0.000276853 0)
(62.0369 0.00031559 0)
(62.0369 0.000330952 0)
(62.0369 0.000326331 0)
(62.037 0.000318973 0)
(62.037 0.00031088 0)
(62.037 0.000294088 0)
(62.037 0.000275015 0)
(62.0371 0.000272677 0)
(62.0372 0.000292984 0)
(62.0372 0.00032058 0)
(62.0373 0.000339363 0)
(62.0373 0.000350441 0)
(62.0374 0.000365394 0)
(62.0375 0.000387794 0)
(62.0376 0.000406027 0)
(62.0376 0.000403873 0)
(62.0377 0.000376754 0)
(62.0378 0.000337887 0)
(62.0378 0.000310676 0)
(62.0379 0.000313213 0)
(62.038 0.000342264 0)
(62.0381 0.000371961 0)
(62.0381 0.000379678 0)
(62.0381 0.000376186 0)
(62.0381 0.000394134 0)
(62.0382 0.000440606 0)
(62.0382 0.000478872 0)
(62.0382 0.000473755 0)
(62.0382 0.000438996 0)
(62.0382 0.000413293 0)
(62.0382 0.000407964 0)
(62.0383 0.000402576 0)
(62.0383 0.00038604 0)
(62.0383 0.000374014 0)
(62.0383 0.000380952 0)
(62.0384 0.000396125 0)
(62.0384 0.000401807 0)
(62.0384 0.000401355 0)
(62.0385 0.000412528 0)
(62.0386 0.00043564 0)
(62.0386 0.000444899 0)
(62.0387 0.000422118 0)
(62.0387 0.000386019 0)
(62.0388 0.00036981 0)
(62.0388 0.000377609 0)
(62.0389 0.00038346 0)
(62.0389 0.000372368 0)
(62.039 0.000357976 0)
(62.039 0.000355252 0)
(62.039 0.000359992 0)
(62.039 0.000365321 0)
(62.039 0.000376197 0)
(62.039 0.000392239 0)
(62.039 0.000399872 0)
(62.039 0.000396357 0)
(62.039 0.000398257 0)
(62.039 0.000412596 0)
(62.039 0.000418129 0)
(62.0389 0.000397185 0)
(62.0388 0.000366901 0)
(62.0388 0.000357696 0)
(62.0388 0.000372147 0)
(62.0388 0.000385427 0)
(62.0387 0.000382798 0)
(62.0387 0.000376637 0)
(62.0387 0.000381596 0)
(62.0387 0.000389687 0)
(62.0386 0.000383999 0)
(62.0386 0.000367728 0)
(62.0385 0.000361115 0)
(62.0385 0.000370653 0)
(62.0385 0.000380379 0)
(62.0384 0.000379159 0)
(62.0384 0.000376504 0)
(62.0384 0.000383807 0)
(62.0384 0.000388981 0)
(62.0384 0.0003944 0)
(62.0383 0.00037477 0)
(48.7076 5.06509e-05 0)
(82.7464 0.000113373 0)
(71.2253 0.000127945 0)
(58.9753 0.000156541 0)
(58.1696 0.000174729 0)
(61.4921 0.000235586 0)
(62.9697 0.000319726 0)
(62.5476 0.000361982 0)
(61.9519 0.000369556 0)
(61.8497 0.000378942 0)
(61.9868 0.000412008 0)
(62.0695 0.000415159 0)
(62.0606 0.000374687 0)
(62.0328 0.00034025 0)
(62.0248 0.000332861 0)
(62.0298 0.000344512 0)
(62.0342 0.000386335 0)
(62.0342 0.0003972 0)
(62.0327 0.000349658 0)
(62.0319 0.000291937 0)
(62.0319 0.000259745 0)
(62.0321 0.000254613 0)
(62.032 0.000269732 0)
(62.032 0.000305225 0)
(62.032 0.000360044 0)
(62.0322 0.000433034 0)
(62.0325 0.000486986 0)
(62.0326 0.000502413 0)
(62.0325 0.000497584 0)
(62.0324 0.000483947 0)
(62.0324 0.000453461 0)
(62.0322 0.000401082 0)
(62.0321 0.000345665 0)
(62.032 0.000315995 0)
(62.0319 0.000330926 0)
(62.0319 0.000383561 0)
(62.0319 0.000440021 0)
(62.032 0.000477903 0)
(62.032 0.000488358 0)
(62.0321 0.000461918 0)
(62.0321 0.00040653 0)
(62.0322 0.000353725 0)
(62.0322 0.000327343 0)
(62.0323 0.000327141 0)
(62.0323 0.000341092 0)
(62.0323 0.000346959 0)
(62.0322 0.000323854 0)
(62.032 0.000282584 0)
(62.0319 0.000257594 0)
(62.032 0.000258423 0)
(62.0321 0.000264274 0)
(62.0322 0.000270415 0)
(62.0324 0.000298852 0)
(62.0326 0.000353357 0)
(62.0328 0.000398499 0)
(62.0329 0.000403182 0)
(62.0329 0.000381377 0)
(62.033 0.000365726 0)
(62.033 0.000362361 0)
(62.0331 0.000356239 0)
(62.0333 0.000340933 0)
(62.0334 0.0003254 0)
(62.0336 0.000325428 0)
(62.0337 0.000348163 0)
(62.0337 0.000373401 0)
(62.0338 0.000368504 0)
(62.0338 0.000336001 0)
(62.0339 0.000318793 0)
(62.0339 0.00034292 0)
(62.034 0.000385419 0)
(62.0341 0.000412575 0)
(62.0342 0.000419735 0)
(62.0343 0.000420405 0)
(62.0344 0.000422806 0)
(62.0345 0.000429165 0)
(62.0345 0.000438808 0)
(62.0346 0.00044344 0)
(62.0347 0.000433392 0)
(62.0348 0.000411285 0)
(62.0348 0.000387539 0)
(62.0349 0.000365505 0)
(62.035 0.000344581 0)
(62.035 0.000330204 0)
(62.0351 0.000327081 0)
(62.0351 0.000332739 0)
(62.0351 0.000346101 0)
(62.0351 0.000366337 0)
(62.0352 0.000379675 0)
(62.0352 0.000370708 0)
(62.0352 0.000348346 0)
(62.0352 0.000335209 0)
(62.0352 0.000335205 0)
(62.0351 0.0003382 0)
(62.0351 0.000346173 0)
(62.0352 0.000363246 0)
(62.0352 0.000371507 0)
(62.0351 0.000350914 0)
(62.0351 0.000315592 0)
(62.0351 0.000300289 0)
(62.0351 0.000316351 0)
(62.0351 0.000344453 0)
(62.0351 0.000363721 0)
(62.035 0.000367736 0)
(62.035 0.000358451 0)
(62.035 0.000342142 0)
(62.035 0.000330484 0)
(62.035 0.000334715 0)
(62.0349 0.000355265 0)
(62.0349 0.000377251 0)
(62.0349 0.000379092 0)
(62.0348 0.00035327 0)
(62.0348 0.000318108 0)
(62.0348 0.000298743 0)
(62.0348 0.000299586 0)
(62.0348 0.000310165 0)
(62.0347 0.000329472 0)
(62.0347 0.000358448 0)
(62.0346 0.000374337 0)
(62.0346 0.000348382 0)
(62.0346 0.000293198 0)
(62.0346 0.000258142 0)
(62.0346 0.000267437 0)
(62.0346 0.000293161 0)
(62.0345 0.000301374 0)
(62.0345 0.000295446 0)
(62.0345 0.000294875 0)
(62.0346 0.000295178 0)
(62.0346 0.000275212 0)
(62.0347 0.000236736 0)
(62.0347 0.000214219 0)
(62.0348 0.000238308 0)
(62.035 0.000298654 0)
(62.0351 0.000350627 0)
(62.0352 0.000358845 0)
(62.0353 0.000328484 0)
(62.0354 0.000291979 0)
(62.0355 0.000273724 0)
(62.0356 0.000274709 0)
(62.0357 0.000283512 0)
(62.0358 0.000289296 0)
(62.0358 0.000286541 0)
(62.0359 0.000277779 0)
(62.0359 0.000271487 0)
(62.036 0.000270627 0)
(62.036 0.000266681 0)
(62.036 0.000251907 0)
(62.0359 0.000232825 0)
(62.0359 0.000223528 0)
(62.036 0.000229084 0)
(62.036 0.000243097 0)
(62.036 0.00025819 0)
(62.036 0.000270898 0)
(62.036 0.000278546 0)
(62.0359 0.000280289 0)
(62.0359 0.000282731 0)
(62.0359 0.000297182 0)
(62.0359 0.000326957 0)
(62.0359 0.000359394 0)
(62.0359 0.0003754 0)
(62.0359 0.000369437 0)
(62.0359 0.000357305 0)
(62.0359 0.000359649 0)
(62.0359 0.000377629 0)
(62.036 0.000390364 0)
(62.036 0.000379934 0)
(62.036 0.000354428 0)
(62.036 0.000339009 0)
(62.0361 0.000344894 0)
(62.0361 0.000356523 0)
(62.0362 0.0003542 0)
(62.0362 0.000340102 0)
(62.0362 0.000330296 0)
(62.0363 0.000326684 0)
(62.0363 0.0003139 0)
(62.0363 0.000285023 0)
(62.0364 0.000252811 0)
(62.0364 0.000229408 0)
(62.0365 0.000210352 0)
(62.0365 0.000188362 0)
(62.0365 0.000170913 0)
(62.0366 0.00017182 0)
(62.0366 0.000190984 0)
(62.0366 0.000211917 0)
(62.0366 0.000217808 0)
(62.0366 0.000205412 0)
(62.0365 0.000184778 0)
(62.0365 0.000168891 0)
(62.0365 0.000163306 0)
(62.0366 0.000162659 0)
(62.0366 0.000155586 0)
(62.0366 0.00013639 0)
(62.0365 0.00011603 0)
(62.0366 0.000116537 0)
(62.0366 0.000145239 0)
(62.0366 0.000178892 0)
(62.0366 0.000188353 0)
(62.0366 0.000177097 0)
(62.0366 0.000175488 0)
(62.0367 0.000194445 0)
(62.0367 0.000209138 0)
(62.0367 0.000198055 0)
(62.0368 0.000173771 0)
(62.0368 0.000160354 0)
(62.0369 0.00015836 0)
(62.0369 0.000151582 0)
(62.037 0.000137821 0)
(62.037 0.00013239 0)
(62.037 0.000142018 0)
(62.0371 0.000152006 0)
(62.0371 0.000146297 0)
(62.0371 0.00013149 0)
(62.0371 0.000128815 0)
(62.0372 0.000142939 0)
(62.0372 0.000153569 0)
(62.0372 0.000145104 0)
(62.0373 0.000129994 0)
(62.0373 0.000129287 0)
(62.0373 0.000142385 0)
(62.0374 0.000153718 0)
(62.0374 0.000159448 0)
(62.0375 0.00016658 0)
(62.0375 0.000172625 0)
(62.0376 0.00016952 0)
(62.0376 0.000164281 0)
(62.0377 0.000171341 0)
(62.0378 0.000186418 0)
(62.0379 0.000192299 0)
(62.0379 0.000190375 0)
(62.038 0.000201768 0)
(62.0382 0.000232029 0)
(62.0383 0.000258597 0)
(62.0384 0.000261953 0)
(62.0385 0.000250521 0)
(62.0386 0.000244046 0)
(62.0386 0.000245485 0)
(62.0387 0.000242888 0)
(62.0388 0.000233398 0)
(62.0389 0.000230075 0)
(62.039 0.000241082 0)
(62.0391 0.000254665 0)
(62.0392 0.000255263 0)
(62.0392 0.000246423 0)
(62.0393 0.000243251 0)
(62.0394 0.000246878 0)
(62.0394 0.00024442 0)
(62.0395 0.000232827 0)
(62.0396 0.000223757 0)
(62.0396 0.000221885 0)
(62.0397 0.000225816 0)
(62.0398 0.000216548 0)
(48.7078 -1.42576e-05 0)
(82.7467 7.70588e-05 0)
(71.2264 0.00016878 0)
(58.9758 0.000197726 0)
(58.1699 0.000127981 0)
(61.4919 5.65945e-05 0)
(62.9692 5.01093e-05 0)
(62.5466 6.68266e-05 0)
(61.9506 7.49037e-05 0)
(61.8479 4.54714e-05 0)
(61.9849 4.54947e-05 0)
(62.0676 9.13014e-05 0)
(62.0587 0.000153703 0)
(62.0309 0.000192721 0)
(62.0229 0.000201698 0)
(62.0281 0.00018604 0)
(62.0326 0.000205899 0)
(62.0329 0.000258433 0)
(62.0319 0.000277135 0)
(62.0315 0.00027114 0)
(62.0317 0.000252957 0)
(62.0318 0.00021984 0)
(62.0319 0.000180451 0)
(62.0319 0.000135084 0)
(62.0318 8.398e-05 0)
(62.0319 4.8384e-05 0)
(62.0319 3.95059e-05 0)
(62.032 5.21e-05 0)
(62.0321 7.93383e-05 0)
(62.0322 0.000109413 0)
(62.0324 0.000144318 0)
(62.0325 0.000182966 0)
(62.0326 0.000204421 0)
(62.0327 0.000197111 0)
(62.0327 0.000171895 0)
(62.0329 0.000150936 0)
(62.033 0.000138544 0)
(62.0331 0.000128051 0)
(62.0332 0.000122538 0)
(62.0334 0.000126834 0)
(62.0334 0.000138855 0)
(62.0334 0.000159503 0)
(62.0335 0.00018927 0)
(62.0335 0.000218266 0)
(62.0335 0.000242105 0)
(62.0336 0.000266962 0)
(62.0337 0.000285158 0)
(62.0337 0.000275188 0)
(62.0337 0.000232355 0)
(62.0337 0.00017444 0)
(62.0336 0.00011975 0)
(62.0335 8.11269e-05 0)
(62.0334 7.13371e-05 0)
(62.0334 9.36966e-05 0)
(62.0334 0.000130317 0)
(62.0335 0.00015592 0)
(62.0335 0.000163103 0)
(62.0335 0.000157637 0)
(62.0335 0.000137488 0)
(62.0335 0.000103688 0)
(62.0335 7.96332e-05 0)
(62.0334 8.82967e-05 0)
(62.0334 0.00012252 0)
(62.0333 0.000158944 0)
(62.0334 0.000182333 0)
(62.0334 0.000184739 0)
(62.0334 0.000165644 0)
(62.0333 0.000139758 0)
(62.0333 0.000122101 0)
(62.0333 0.000106947 0)
(62.0333 8.34958e-05 0)
(62.0333 6.30829e-05 0)
(62.0334 6.52866e-05 0)
(62.0334 8.51169e-05 0)
(62.0335 9.84044e-05 0)
(62.0335 9.525e-05 0)
(62.0336 8.81934e-05 0)
(62.0337 9.05295e-05 0)
(62.0337 0.000102403 0)
(62.0337 0.000114755 0)
(62.0337 0.000117149 0)
(62.0337 0.000108726 0)
(62.0338 0.000105087 0)
(62.0338 0.000120734 0)
(62.0338 0.000145747 0)
(62.0338 0.000158287 0)
(62.0338 0.000154912 0)
(62.0339 0.000147964 0)
(62.0339 0.000143799 0)
(62.034 0.000145404 0)
(62.0341 0.000160808 0)
(62.0341 0.00018628 0)
(62.0342 0.000199605 0)
(62.0342 0.000191396 0)
(62.0343 0.000182133 0)
(62.0344 0.000188724 0)
(62.0344 0.00019769 0)
(62.0345 0.000191444 0)
(62.0345 0.000179222 0)
(62.0346 0.000180995 0)
(62.0346 0.0001968 0)
(62.0346 0.000209138 0)
(62.0347 0.00020548 0)
(62.0348 0.000188227 0)
(62.0349 0.000170134 0)
(62.0349 0.000165606 0)
(62.035 0.000181225 0)
(62.0351 0.00021057 0)
(62.0352 0.000236816 0)
(62.0353 0.000239853 0)
(62.0353 0.00020972 0)
(62.0354 0.000163357 0)
(62.0355 0.000138927 0)
(62.0356 0.000158171 0)
(62.0357 0.000202506 0)
(62.0357 0.000240356 0)
(62.0358 0.000263373 0)
(62.0359 0.000275785 0)
(62.036 0.000267835 0)
(62.036 0.000232496 0)
(62.0361 0.000197386 0)
(62.0361 0.000203055 0)
(62.0362 0.00024804 0)
(62.0362 0.000285218 0)
(62.0362 0.000278148 0)
(62.0361 0.00023849 0)
(62.0361 0.000200662 0)
(62.0361 0.000179423 0)
(62.0361 0.000165039 0)
(62.036 0.000149321 0)
(62.0359 0.000140912 0)
(62.0358 0.0001513 0)
(62.0358 0.000173819 0)
(62.0357 0.000186042 0)
(62.0357 0.000174918 0)
(62.0356 0.000151606 0)
(62.0356 0.000137734 0)
(62.0355 0.000143579 0)
(62.0355 0.000164132 0)
(62.0355 0.000188004 0)
(62.0355 0.000204092 0)
(62.0355 0.000207267 0)
(62.0355 0.000204833 0)
(62.0355 0.000211505 0)
(62.0355 0.000232233 0)
(62.0355 0.000255403 0)
(62.0355 0.00026695 0)
(62.0355 0.000264721 0)
(62.0355 0.000255205 0)
(62.0354 0.000243975 0)
(62.0355 0.000235113 0)
(62.0355 0.000233756 0)
(62.0355 0.000241531 0)
(62.0355 0.000251486 0)
(62.0355 0.000253563 0)
(62.0355 0.000245783 0)
(62.0356 0.000236519 0)
(62.0356 0.000233475 0)
(62.0357 0.000232148 0)
(62.0358 0.000219397 0)
(62.0358 0.000190462 0)
(62.0359 0.000158968 0)
(62.036 0.000144443 0)
(62.0361 0.00014981 0)
(62.0362 0.000157322 0)
(62.0362 0.000150586 0)
(62.0363 0.000135877 0)
(62.0363 0.000134003 0)
(62.0364 0.000152113 0)
(62.0364 0.000174019 0)
(62.0365 0.000183093 0)
(62.0365 0.000183873 0)
(62.0365 0.000190311 0)
(62.0365 0.000201162 0)
(62.0365 0.000202681 0)
(62.0365 0.000192384 0)
(62.0365 0.000183903 0)
(62.0366 0.000186815 0)
(62.0366 0.000195789 0)
(62.0366 0.000203783 0)
(62.0366 0.000215027 0)
(62.0366 0.00023861 0)
(62.0366 0.000274856 0)
(62.0366 0.000312645 0)
(62.0366 0.000337837 0)
(62.0366 0.000342693 0)
(62.0367 0.000329582 0)
(62.0367 0.000308511 0)
(62.0367 0.000290953 0)
(62.0368 0.000281836 0)
(62.0368 0.000274772 0)
(62.0369 0.000260483 0)
(62.0369 0.000244598 0)
(62.0369 0.000248095 0)
(62.037 0.00027956 0)
(62.037 0.000316311 0)
(62.037 0.00032946 0)
(62.037 0.000320969 0)
(62.037 0.000315552 0)
(62.037 0.000320335 0)
(62.0371 0.000316903 0)
(62.0371 0.000294901 0)
(62.0371 0.000270031 0)
(62.0371 0.000260199 0)
(62.0371 0.000261676 0)
(62.0371 0.000260815 0)
(62.0371 0.00025834 0)
(62.0371 0.000268064 0)
(62.0372 0.000293611 0)
(62.0372 0.000318436 0)
(62.0372 0.000325581 0)
(62.0372 0.000320413 0)
(62.0372 0.000321663 0)
(62.0373 0.000332065 0)
(62.0373 0.000333817 0)
(62.0374 0.000316582 0)
(62.0374 0.000292784 0)
(62.0375 0.000276552 0)
(62.0375 0.000264171 0)
(62.0376 0.00024784 0)
(62.0376 0.000233051 0)
(62.0377 0.000226513 0)
(62.0378 0.000220668 0)