/*--------------------------------*- C++ -*----------------------------------*\
| =========                 |                                                 |
| \\      /  F ield         | OpenFOAM: The Open Source CFD Toolbox           |
|  \\    /   O peration     | Version:  2406                                  |
|   \\  /    A nd           | Website:  www.openfoam.com                      |
|    \\/     M anipulation  |                                                 |
\*---------------------------------------------------------------------------*/
FoamFile
{
    version     2.0;
    format      ascii;
    arch        "LSB;label=32;scalar=64";
    class       surfaceScalarField;
    location    "0.5";
    object      phi;
}
// * * * * * * * * * * * * * * * * * * * * * * * * * * * * * * * * * * * * * //

dimensions      [0 3 -1 0 0 0 0];

oriented        oriented;

internalField   nonuniform List<scalar> 
1890
(
3.80098e-06
-2.31377e-12
3.80099e-06
-3.32722e-12
3.80099e-06
-2.5605e-12
3.80099e-06
-8.34965e-13
3.80099e-06
7.79314e-13
3.80099e-06
2.13284e-12
3.80099e-06
2.84252e-12
3.80099e-06
2.57046e-12
3.80099e-06
1.39159e-12
3.80099e-06
-1.97001e-13
3.80099e-06
-1.37561e-12
3.80099e-06
-1.77787e-12
3.80099e-06
-1.44656e-12
3.80099e-06
-9.47298e-13
3.80099e-06
-7.14664e-13
3.80099e-06
-1.03394e-12
3.80099e-06
-1.83118e-12
3.80099e-06
-2.77511e-12
3.80099e-06
-3.51241e-12
3.80099e-06
-3.63474e-12
3.80099e-06
-2.92526e-12
3.80099e-06
-1.46668e-12
3.80099e-06
4.03104e-13
3.80099e-06
2.10826e-12
3.80099e-06
3.25016e-12
3.80099e-06
3.45202e-12
3.80099e-06
2.832e-12
3.80099e-06
1.67414e-12
3.80099e-06
2.88123e-13
3.80099e-06
-9.39067e-13
3.80099e-06
-1.7314e-12
3.80099e-06
-1.95204e-12
3.80099e-06
-1.59121e-12
3.80099e-06
-7.86862e-13
3.80099e-06
1.30006e-13
3.80099e-06
7.87104e-13
3.80099e-06
1.00341e-12
3.80099e-06
7.88628e-13
3.80099e-06
3.38079e-13
3.80099e-06
-1.76927e-13
3.80099e-06
-7.00894e-13
3.80099e-06
-1.15595e-12
3.80099e-06
-1.57751e-12
3.80099e-06
-1.75015e-12
3.80099e-06
-1.47624e-12
3.80099e-06
-6.88704e-13
3.80099e-06
5.06361e-13
3.80099e-06
1.71204e-12
3.80099e-06
2.59109e-12
3.80099e-06
2.8872e-12
3.80099e-06
2.61917e-12
3.80099e-06
1.93763e-12
3.80099e-06
1.05295e-12
3.80099e-06
1.45042e-13
3.80099e-06
-6.03396e-13
3.80099e-06
-1.02707e-12
3.80099e-06
-1.04722e-12
3.80099e-06
-6.92632e-13
3.80099e-06
-1.55224e-13
3.80099e-06
3.0424e-13
3.80099e-06
5.08943e-13
3.80099e-06
4.47729e-13
3.80099e-06
2.46807e-13
3.80099e-06
6.25087e-14
3.80099e-06
-3.88279e-14
3.80099e-06
-5.3854e-14
3.80099e-06
-1.98185e-14
3.80099e-06
3.6396e-14
3.80099e-06
1.46262e-13
3.80099e-06
2.70763e-13
3.80099e-06
3.43507e-13
3.80099e-06
2.84168e-13
3.80099e-06
4.96144e-14
3.80099e-06
-2.61339e-13
3.80099e-06
-5.24399e-13
3.80099e-06
-6.11263e-13
3.80099e-06
-5.16534e-13
3.80099e-06
-2.79305e-13
3.80099e-06
1.9831e-14
3.80099e-06
3.82538e-13
3.80099e-06
7.96934e-13
3.80099e-06
1.24684e-12
3.80099e-06
1.64512e-12
3.80099e-06
1.91043e-12
3.80099e-06
1.98436e-12
3.80099e-06
1.85513e-12
3.80099e-06
1.54205e-12
3.80099e-06
1.07849e-12
3.80099e-06
5.11003e-13
3.80099e-06
-8.75828e-14
3.80099e-06
-6.226e-13
3.80099e-06
-1.06171e-12
3.80099e-06
-1.33991e-12
3.80099e-06
-1.4055e-12
3.80099e-06
-1.14387e-12
3.80099e-06
-4.59763e-13
3.80098e-06
5.97498e-13
3.80098e-06
1.88911e-12
3.80098e-06
3.14781e-12
3.16341e-12
9.87456e-06
-3.90019e-12
9.87456e-06
-5.39795e-12
9.87457e-06
-4.1232e-12
9.87456e-06
-1.53672e-12
9.87456e-06
9.36358e-13
9.87456e-06
2.65368e-12
9.87456e-06
3.1728e-12
9.87456e-06
2.44955e-12
9.87456e-06
9.56275e-13
9.87457e-06
-6.15212e-13
9.87457e-06
-1.48622e-12
9.87457e-06
-1.56552e-12
9.87456e-06
-1.01566e-12
9.87456e-06
-3.69013e-13
9.87456e-06
-1.64997e-13
9.87456e-06
-6.80742e-13
9.87457e-06
-1.68815e-12
9.87457e-06
-2.81676e-12
9.87457e-06
-3.51061e-12
9.87457e-06
-3.49372e-12
9.87457e-06
-2.65984e-12
9.87456e-06
-1.175e-12
9.87456e-06
6.64598e-13
9.87456e-06
2.24324e-12
9.87456e-06
3.22859e-12
9.87457e-06
3.35046e-12
9.87457e-06
2.64288e-12
9.87457e-06
1.40052e-12
9.87457e-06
4.29336e-14
9.87457e-06
-1.10892e-12
9.87457e-06
-1.77161e-12
9.87457e-06
-1.92631e-12
9.87457e-06
-1.62352e-12
9.87457e-06
-1.02276e-12
9.87457e-06
-2.76464e-13
9.87457e-06
4.14085e-13
9.87457e-06
8.59107e-13
9.87457e-06
9.40366e-13
9.87457e-06
6.29398e-13
9.87457e-06
1.56186e-14
9.87457e-06
-7.43623e-13
9.87457e-06
-1.42781e-12
9.87457e-06
-1.86016e-12
9.87456e-06
-1.92127e-12
9.87456e-06
-1.53378e-12
9.87456e-06
-7.20715e-13
9.87456e-06
4.28446e-13
9.87456e-06
1.5276e-12
9.87456e-06
2.38437e-12
9.87456e-06
2.71968e-12
9.87456e-06
2.47829e-12
9.87456e-06
1.77825e-12
9.87456e-06
8.53878e-13
9.87456e-06
-3.02279e-14
9.87456e-06
-6.95907e-13
9.87456e-06
-9.81241e-13
9.87456e-06
-9.22321e-13
9.87456e-06
-5.84551e-13
9.87456e-06
-1.1526e-13
9.87456e-06
3.07693e-13
9.87456e-06
5.43237e-13
9.87456e-06
5.4239e-13
9.87456e-06
3.6123e-13
9.87456e-06
1.35513e-13
9.87456e-06
-2.18722e-14
9.87457e-06
-5.18822e-14
9.87457e-06
2.68765e-14
9.87457e-06
1.54804e-13
9.87457e-06
2.69251e-13
9.87457e-06
3.30928e-13
9.87457e-06
3.34712e-13
9.87457e-06
2.59946e-13
9.87457e-06
1.11648e-13
9.87457e-06
-8.10925e-14
9.87457e-06
-2.82755e-13
9.87457e-06
-4.23372e-13
9.87457e-06
-4.43297e-13
9.87456e-06
-3.2384e-13
9.87456e-06
-7.32902e-14
9.87456e-06
2.82685e-13
9.87456e-06
7.09719e-13
9.87456e-06
1.12147e-12
9.87456e-06
1.49037e-12
9.87456e-06
1.73165e-12
9.87456e-06
1.80015e-12
9.87456e-06
1.68096e-12
9.87456e-06
1.38777e-12
9.87456e-06
9.57418e-13
9.87456e-06
4.45295e-13
9.87456e-06
-9.12412e-14
9.87456e-06
-5.68423e-13
9.87456e-06
-9.0086e-13
9.87456e-06
-1.03505e-12
9.87456e-06
-8.76436e-13
9.87456e-06
-3.01735e-13
9.87456e-06
7.54577e-13
9.87456e-06
2.36572e-12
9.87455e-06
4.31324e-12
9.87455e-06
5.85159e-12
5.60375e-12
1.44247e-05
-2.58361e-12
1.44247e-05
-3.97834e-12
1.44247e-05
-3.11907e-12
1.44247e-05
-1.19848e-12
1.44247e-05
7.5353e-13
1.44247e-05
2.35294e-12
1.44247e-05
3.13116e-12
1.44247e-05
2.87782e-12
1.44247e-05
1.80212e-12
1.44247e-05
5.07567e-13
1.44247e-05
-3.54195e-13
1.44247e-05
-5.08625e-13
1.44247e-05
-9.15813e-14
1.44247e-05
5.29125e-13
1.44247e-05
9.06751e-13
1.44247e-05
7.44433e-13
1.44247e-05
-2.98952e-14
1.44247e-05
-1.1566e-12
1.44247e-05
-2.24964e-12
1.44247e-05
-2.86791e-12
1.44247e-05
-2.80954e-12
1.44247e-05
-2.07064e-12
1.44247e-05
-8.20265e-13
1.44247e-05
5.95609e-13
1.44247e-05
1.78242e-12
1.44247e-05
2.43025e-12
1.44247e-05
2.41184e-12
1.44247e-05
1.78169e-12
1.44247e-05
7.72771e-13
1.44247e-05
-3.03266e-13
1.44247e-05
-1.13477e-12
1.44247e-05
-1.59343e-12
1.44247e-05
-1.61972e-12
1.44247e-05
-1.27588e-12
1.44247e-05
-7.02171e-13
1.44247e-05
-3.49401e-14
1.44247e-05
5.50753e-13
1.44247e-05
9.11925e-13
1.44247e-05
9.43324e-13
1.44247e-05
6.17742e-13
1.44247e-05
-6.40289e-15
1.44247e-05
-7.66761e-13
1.44247e-05
-1.48635e-12
1.44247e-05
-1.93887e-12
1.44247e-05
-2.01262e-12
1.44247e-05
-1.6503e-12
1.44247e-05
-9.07292e-13
1.44247e-05
1.04984e-14
1.44247e-05
9.10476e-13
1.44247e-05
1.56064e-12
1.44247e-05
1.8079e-12
1.44247e-05
1.62235e-12
1.44247e-05
1.09988e-12
1.44247e-05
4.17224e-13
1.44247e-05
-2.24064e-13
1.44247e-05
-6.38702e-13
1.44247e-05
-7.7937e-13
1.44247e-05
-6.52449e-13
1.44247e-05
-3.42944e-13
1.44247e-05
1.73372e-14
1.44247e-05
3.05837e-13
1.44247e-05
4.42325e-13
1.44247e-05
4.08878e-13
1.44247e-05
2.61472e-13
1.44247e-05
8.80351e-14
1.44247e-05
-2.60386e-14
1.44247e-05
-3.58556e-14
1.44247e-05
5.33396e-14
1.44247e-05
1.94352e-13
1.44247e-05
3.20496e-13
1.44247e-05
4.01293e-13
1.44247e-05
4.00289e-13
1.44247e-05
3.1156e-13
1.44247e-05
1.48691e-13
1.44247e-05
-7.8844e-14
1.44247e-05
-3.27882e-13
1.44247e-05
-5.4657e-13
1.44247e-05
-6.81878e-13
1.44247e-05
-6.95035e-13
1.44247e-05
-5.67944e-13
1.44247e-05
-3.14655e-13
1.44247e-05
2.12098e-14
1.44247e-05
3.96109e-13
1.44247e-05
7.46762e-13
1.44247e-05
1.01455e-12
1.44247e-05
1.16021e-12
1.44247e-05
1.17234e-12
1.44247e-05
1.06623e-12
1.44247e-05
8.78266e-13
1.44247e-05
6.57824e-13
1.44247e-05
4.57642e-13
1.44247e-05
3.27852e-13
1.44247e-05
2.96886e-13
1.44247e-05
4.48297e-13
1.44247e-05
9.35663e-13
1.44247e-05
1.93963e-12
1.44247e-05
3.5117e-12
1.44247e-05
5.41597e-12
1.44247e-05
6.76373e-12
6.39608e-12
1.74555e-05
7.07854e-13
1.74555e-05
3.25389e-14
1.74555e-05
4.21797e-13
1.74555e-05
1.06735e-12
1.74555e-05
1.60766e-12
1.74555e-05
2.1624e-12
1.74555e-05
2.62062e-12
1.74555e-05
2.73028e-12
1.74555e-05
2.41058e-12
1.74555e-05
1.83908e-12
1.74555e-05
1.33439e-12
1.74555e-05
1.13507e-12
1.74555e-05
1.28455e-12
1.74555e-05
1.62061e-12
1.74555e-05
1.8987e-12
1.74555e-05
1.90687e-12
1.74555e-05
1.52784e-12
1.74555e-05
7.57797e-13
1.74555e-05
-2.42196e-13
1.74555e-05
-1.22104e-12
1.74555e-05
-1.92787e-12
1.74555e-05
-2.19138e-12
1.74555e-05
-1.97215e-12
1.74555e-05
-1.3316e-12
1.74555e-05
-4.49435e-13
1.74555e-05
4.6675e-13
1.74555e-05
1.13767e-12
1.74555e-05
1.40841e-12
1.74555e-05
1.24788e-12
1.74555e-05
7.40026e-13
1.74555e-05
6.65101e-14
1.74555e-05
-5.51514e-13
1.74555e-05
-9.53949e-13
1.74555e-05
-1.04328e-12
1.74555e-05
-8.26006e-13
1.74555e-05
-3.87332e-13
1.74555e-05
1.33495e-13
1.74555e-05
5.93871e-13
1.74555e-05
8.61803e-13
1.74555e-05
8.63564e-13
1.74555e-05
5.79268e-13
1.74555e-05
5.32519e-14
1.74555e-05
-6.1862e-13
1.74555e-05
-1.29662e-12
1.74555e-05
-1.81798e-12
1.74555e-05
-2.07776e-12
1.74555e-05
-2.00881e-12
1.74555e-05
-1.62972e-12
1.74555e-05
-1.02573e-12
1.74555e-05
-3.37877e-13
1.74555e-05
2.77733e-13
1.74555e-05
6.88698e-13
1.74555e-05
8.29899e-13
1.74555e-05
7.14489e-13
1.74555e-05
4.18283e-13
1.74555e-05
6.16525e-14
1.74555e-05
-2.3334e-13
1.74555e-05
-3.89582e-13
1.74555e-05
-3.80874e-13
1.74555e-05
-2.38224e-13
1.74555e-05
-3.63726e-14
1.74555e-05
1.44568e-13
1.74555e-05
2.45694e-13
1.74555e-05
2.45334e-13
1.74555e-05
1.62837e-13
1.74555e-05
5.38266e-14
1.74555e-05
-2.80602e-14
1.74555e-05
-4.1262e-14
1.74555e-05
2.31376e-14
1.74555e-05
1.40155e-13
1.74555e-05
2.67635e-13
1.74555e-05
3.61062e-13
1.74555e-05
3.76409e-13
1.74555e-05
2.86906e-13
1.74555e-05
8.86815e-14
1.74555e-05
-2.06794e-13
1.74555e-05
-5.50456e-13
1.74555e-05
-8.92398e-13
1.74555e-05
-1.16969e-12
1.74555e-05
-1.32982e-12
1.74555e-05
-1.3401e-12
1.74555e-05
-1.19511e-12
1.74555e-05
-9.13109e-13
1.74555e-05
-5.41145e-13
1.74555e-05
-1.33826e-13
1.74555e-05
2.44291e-13
1.74555e-05
5.60936e-13
1.74555e-05
8.14626e-13
1.74555e-05
1.02356e-12
1.74555e-05
1.21307e-12
1.74555e-05
1.39626e-12
1.74555e-05
1.58372e-12
1.74555e-05
1.75519e-12
1.74555e-05
1.94884e-12
1.74555e-05
2.28633e-12
1.74555e-05
2.93161e-12
1.74555e-05
3.96305e-12
1.74555e-05
5.17782e-12
1.74555e-05
5.88467e-12
5.5097e-12
1.89701e-05
4.77403e-12
1.89701e-05
5.12676e-12
1.89701e-05
5.12402e-12
1.89701e-05
4.43364e-12
1.89701e-05
3.39975e-12
1.89701e-05
2.53786e-12
1.89701e-05
2.17229e-12
1.89701e-05
2.21349e-12
1.89701e-05
2.34484e-12
1.89701e-05
2.33591e-12
1.89701e-05
2.13945e-12
1.89701e-05
1.89833e-12
1.89701e-05
1.74957e-12
1.89701e-05
1.7607e-12
1.89701e-05
1.89517e-12
1.89701e-05
2.05006e-12
1.89701e-05
2.10197e-12
1.89701e-05
1.92419e-12
1.89701e-05
1.41457e-12
1.89701e-05
6.17876e-13
1.89701e-05
-3.35895e-13
1.89701e-05
-1.24386e-12
1.89701e-05
-1.89505e-12
1.89701e-05
-2.13958e-12
1.89701e-05
-1.92791e-12
1.89701e-05
-1.31048e-12
1.89701e-05
-4.69615e-13
1.89701e-05
3.69087e-13
1.89701e-05
9.73262e-13
1.89701e-05
1.18982e-12
1.89701e-05
1.02865e-12
1.89701e-05
5.92405e-13
1.89701e-05
7.05047e-14
1.89701e-05
-3.51829e-13
1.89701e-05
-5.54465e-13
1.89701e-05
-5.18182e-13
1.89701e-05
-3.04997e-13
1.89701e-05
1.64312e-15
1.89701e-05
3.12237e-13
1.89701e-05
5.62751e-13
1.89701e-05
6.86549e-13
1.89701e-05
6.26249e-13
1.89701e-05
3.39332e-13
1.89701e-05
-1.79979e-13
1.89701e-05
-8.11356e-13
1.89701e-05
-1.44326e-12
1.89701e-05
-1.921e-12
1.89701e-05
-2.14229e-12
1.89701e-05
-2.0612e-12
1.89701e-05
-1.69774e-12
1.89701e-05
-1.12979e-12
1.89701e-05
-4.79582e-13
1.89701e-05
1.17314e-13
1.89701e-05
5.26792e-13
1.89701e-05
6.84939e-13
1.89701e-05
5.97076e-13
1.89701e-05
3.46316e-13
1.89701e-05
5.85345e-14
1.89701e-05
-1.62111e-13
1.89701e-05
-2.56808e-13
1.89701e-05
-2.31083e-13
1.89701e-05
-1.28082e-13
1.89701e-05
-8.66184e-16
1.89701e-05
9.87189e-14
1.89701e-05
1.38131e-13
1.89701e-05
1.06486e-13
1.89701e-05
2.33508e-14
1.89701e-05
-7.15469e-14
1.89701e-05
-1.2768e-13
1.89701e-05
-1.10484e-13
1.89701e-05
-2.21327e-14
1.89701e-05
9.81162e-14
1.89701e-05
1.92206e-13
1.89701e-05
2.1856e-13
1.89701e-05
1.49562e-13
1.89701e-05
-2.45349e-14
1.89701e-05
-2.78991e-13
1.89701e-05
-6.01583e-13
1.89701e-05
-9.49946e-13
1.89701e-05
-1.27004e-12
1.89701e-05
-1.49853e-12
1.89701e-05
-1.5836e-12
1.89701e-05
-1.50286e-12
1.89701e-05
-1.26935e-12
1.89701e-05
-9.23238e-13
1.89701e-05
-5.24975e-13
1.89701e-05
-1.21997e-13
1.89701e-05
2.68057e-13
1.89701e-05
6.60899e-13
1.89701e-05
1.07751e-12
1.89701e-05
1.51483e-12
1.89701e-05
1.93845e-12
1.89701e-05
2.31717e-12
1.89701e-05
2.58485e-12
1.89701e-05
2.84319e-12
1.89701e-05
3.16467e-12
1.89701e-05
3.57482e-12
1.89701e-05
3.91703e-12
1.89701e-05
3.8336e-12
3.47024e-12
1.89701e-05
8.15989e-12
1.89701e-05
9.48287e-12
1.89701e-05
9.04671e-12
1.89701e-05
7.151e-12
1.89701e-05
4.85236e-12
1.89701e-05
2.85971e-12
1.89701e-05
1.68657e-12
1.89701e-05
1.40093e-12
1.89701e-05
1.57704e-12
1.89701e-05
1.70377e-12
1.89701e-05
1.51184e-12
1.89701e-05
1.05226e-12
1.89701e-05
5.68809e-13
1.89701e-05
3.06632e-13
1.89701e-05
3.88549e-13
1.89701e-05
7.68189e-13
1.89701e-05
1.3357e-12
1.89701e-05
1.86989e-12
1.89701e-05
2.14481e-12
1.89701e-05
1.99527e-12
1.89701e-05
1.39536e-12
1.89701e-05
4.68265e-13
1.89701e-05
-5.6009e-13
1.89701e-05
-1.44079e-12
1.89701e-05
-1.95987e-12
1.89701e-05
-1.99738e-12
1.89701e-05
-1.56559e-12
1.89701e-05
-7.89467e-13
1.89701e-05
1.10801e-13
1.89701e-05
8.826e-13
1.89701e-05
1.30043e-12
1.89701e-05
1.32274e-12
1.89701e-05
9.95742e-13
1.89701e-05
4.74458e-13
1.89701e-05
-5.29572e-14
1.89701e-05
-4.55289e-13
1.89701e-05
-6.68617e-13
1.89701e-05
-6.73396e-13
1.89701e-05
-4.82009e-13
1.89701e-05
-1.20051e-13
1.89701e-05
3.50548e-13
1.89701e-05
8.06937e-13
1.89701e-05
1.09858e-12
1.89701e-05
1.08923e-12
1.89701e-05
7.55092e-13
1.89701e-05
1.62174e-13
1.89701e-05
-5.34578e-13
1.89701e-05
-1.16407e-12
1.89701e-05
-1.60239e-12
1.89701e-05
-1.75634e-12
1.89701e-05
-1.60111e-12
1.89701e-05
-1.17598e-12
1.89701e-05
-5.84379e-13
1.89701e-05
1.4862e-14
1.89701e-05
4.62065e-13
1.89701e-05
6.61825e-13
1.89701e-05
6.06769e-13
1.89701e-05
3.82289e-13
1.89701e-05
1.1053e-13
1.89701e-05
-1.07067e-13
1.89701e-05
-2.2177e-13
1.89701e-05
-2.33805e-13
1.89701e-05
-1.67541e-13
1.89701e-05
-5.74505e-14
1.89701e-05
4.79834e-14
1.89701e-05
1.0134e-13
1.89701e-05
6.89099e-14
1.89701e-05
-4.31257e-14
1.89701e-05
-1.91645e-13
1.89701e-05
-3.08098e-13
1.89701e-05
-3.42556e-13
1.89701e-05
-2.83965e-13
1.89701e-05
-1.58946e-13
1.89701e-05
-1.25438e-14
1.89701e-05
1.19495e-13
1.89701e-05
2.10726e-13
1.89701e-05
2.43272e-13
1.89701e-05
1.91138e-13
1.89701e-05
3.66881e-14
1.89701e-05
-2.11695e-13
1.89701e-05
-5.09337e-13
1.89701e-05
-7.80107e-13
1.89701e-05
-9.64054e-13
1.89701e-05
-1.03058e-12
1.89701e-05
-9.71829e-13
1.89701e-05
-8.17377e-13
1.89701e-05
-6.02875e-13
1.89701e-05
-3.51429e-13
1.89701e-05
-5.91395e-14
1.89701e-05
2.92513e-13
1.89701e-05
7.18263e-13
1.89701e-05
1.19714e-12
1.89701e-05
1.66968e-12
1.89701e-05
2.04096e-12
1.89701e-05
2.30837e-12
1.89701e-05
2.44624e-12
1.89701e-05
2.39714e-12
1.89701e-05
2.03469e-12
1.89701e-05
1.31942e-12
1.03365e-12
1.74555e-05
9.58693e-12
1.74555e-05
1.1404e-11
1.74555e-05
1.0388e-11
1.74555e-05
7.60204e-12
1.74555e-05
4.6528e-12
1.74555e-05
2.22971e-12
1.74555e-05
7.6818e-13
1.74555e-05
2.98194e-13
1.74555e-05
3.84191e-13
1.74555e-05
3.67915e-13
1.74555e-05
-9.23364e-14
1.74555e-05
-8.93699e-13
1.74555e-05
-1.67513e-12
1.74555e-05
-2.07128e-12
1.74555e-05
-1.89492e-12
1.74555e-05
-1.18302e-12
1.74555e-05
-9.82134e-14
1.74555e-05
1.09164e-12
1.74555e-05
2.10262e-12
1.74555e-05
2.67854e-12
1.74555e-05
2.67769e-12
1.74555e-05
2.11043e-12
1.74555e-05
1.14337e-12
1.74555e-05
2.91947e-14
1.74555e-05
-9.75144e-13
1.74555e-05
-1.63137e-12
1.74555e-05
-1.80627e-12
1.74555e-05
-1.48025e-12
1.74555e-05
-7.58457e-13
1.74555e-05
1.50098e-13
1.74555e-05
9.73832e-13
1.74555e-05
1.44741e-12
1.74555e-05
1.47379e-12
1.74555e-05
1.06848e-12
1.74555e-05
3.90546e-13
1.74555e-05
-3.31827e-13
1.74555e-05
-9.05384e-13
1.74555e-05
-1.19432e-12
1.74555e-05
-1.13836e-12
1.74555e-05
-7.35976e-13
1.74555e-05
-4.5315e-14
1.74555e-05
7.95322e-13
1.74555e-05
1.5962e-12
1.74555e-05
2.13037e-12
1.74555e-05
2.25056e-12
1.74555e-05
1.93155e-12
1.74555e-05
1.28145e-12
1.74555e-05
4.99901e-13
1.74555e-05
-2.49752e-13
1.74555e-05
-8.2089e-13
1.74555e-05
-1.13045e-12
1.74555e-05
-1.14676e-12
1.74555e-05
-8.95572e-13
1.74555e-05
-4.70398e-13
1.74555e-05
-1.52391e-14
1.74555e-05
3.25351e-13
1.74555e-05
4.64054e-13
1.74555e-05
4.05125e-13
1.74555e-05
2.27061e-13
1.74555e-05
3.13545e-14
1.74555e-05
-1.10061e-13
1.74555e-05
-1.73916e-13
1.74555e-05
-1.66576e-13
1.74555e-05
-1.07151e-13
1.74555e-05
-2.22318e-14
1.74555e-05
5.01737e-14
1.74555e-05
6.59223e-14
1.74555e-05
-9.27358e-15
1.74555e-05
-1.74431e-13
1.74555e-05
-3.70846e-13
1.74555e-05
-5.14466e-13
1.74555e-05
-5.4676e-13
1.74555e-05
-4.42242e-13
1.74555e-05
-2.10113e-13
1.74555e-05
1.08669e-13
1.74555e-05
4.77299e-13
1.74555e-05
8.44376e-13
1.74555e-05
1.14338e-12
1.74555e-05
1.30184e-12
1.74555e-05
1.26464e-12
1.74555e-05
1.02642e-12
1.74555e-05
6.40667e-13
1.74555e-05
2.03302e-13
1.74555e-05
-2.20645e-13
1.74555e-05
-5.51059e-13
1.74555e-05
-7.62548e-13
1.74555e-05
-8.54201e-13
1.74555e-05
-8.61838e-13
1.74555e-05
-7.99976e-13
1.74555e-05
-6.65232e-13
1.74555e-05
-4.36533e-13
1.74555e-05
-9.18935e-14
1.74555e-05
3.45062e-13
1.74555e-05
7.95403e-13
1.74555e-05
1.14089e-12
1.74555e-05
1.25356e-12
1.74555e-05
9.64124e-13
1.74555e-05
1.88111e-13
1.74555e-05
-8.78246e-13
-9.8556e-13
1.44247e-05
8.3123e-12
1.44247e-05
9.88065e-12
1.44247e-05
8.36953e-12
1.44247e-05
5.35429e-12
1.44247e-05
2.57794e-12
1.44247e-05
5.24894e-13
1.44247e-05
-6.08283e-13
1.44247e-05
-9.32105e-13
1.44247e-05
-9.0784e-13
1.44247e-05
-1.06611e-12
1.44247e-05
-1.691e-12
1.44247e-05
-2.62994e-12
1.44247e-05
-3.46666e-12
1.44247e-05
-3.79512e-12
1.44247e-05
-3.43344e-12
1.44247e-05
-2.44633e-12
1.44247e-05
-1.07283e-12
1.44247e-05
4.22468e-13
1.44247e-05
1.77277e-12
1.44247e-05
2.73715e-12
1.44247e-05
3.14615e-12
1.44247e-05
2.94762e-12
1.44247e-05
2.21817e-12
1.44247e-05
1.18933e-12
1.44247e-05
5.20536e-14
1.44247e-05
-8.78799e-13
1.44247e-05
-1.46628e-12
1.44247e-05
-1.59805e-12
1.44247e-05
-1.23928e-12
1.44247e-05
-4.99085e-13
1.44247e-05
3.96486e-13
1.44247e-05
1.11105e-12
1.44247e-05
1.40685e-12
1.44247e-05
1.19076e-12
1.44247e-05
5.52443e-13
1.44247e-05
-2.62666e-13
1.44247e-05
-9.68e-13
1.44247e-05
-1.36124e-12
1.44247e-05
-1.34384e-12
1.44247e-05
-9.22124e-13
1.44247e-05
-1.73872e-13
1.44247e-05
7.76714e-13
1.44247e-05
1.76788e-12
1.44247e-05
2.57448e-12
1.44247e-05
2.99714e-12
1.44247e-05
2.94278e-12
1.44247e-05
2.45607e-12
1.44247e-05
1.69931e-12
1.44247e-05
8.80625e-13
1.44247e-05
1.23561e-13
1.44247e-05
-4.24931e-13
1.44247e-05
-7.56272e-13
1.44247e-05
-8.51124e-13
1.44247e-05
-7.14068e-13
1.44247e-05
-4.24335e-13
1.44247e-05
-9.30342e-14
1.44247e-05
1.5137e-13
1.44247e-05
2.35833e-13
1.44247e-05
1.88028e-13
1.44247e-05
8.10767e-14
1.44247e-05
-6.98499e-15
1.44247e-05
-5.12988e-14
1.44247e-05
-5.94643e-14
1.44247e-05
-4.96998e-14
1.44247e-05
-2.91828e-14
1.44247e-05
4.19902e-16
1.44247e-05
2.10775e-14
1.44247e-05
-3.97225e-15
1.44247e-05
-1.13174e-13
1.44247e-05
-2.94484e-13
1.44247e-05
-4.755e-13
1.44247e-05
-5.5427e-13
1.44247e-05
-4.69948e-13
1.44247e-05
-2.05266e-13
1.44247e-05
2.11131e-13
1.44247e-05
7.21029e-13
1.44247e-05
1.26906e-12
1.44247e-05
1.7733e-12
1.44247e-05
2.13838e-12
1.44247e-05
2.27087e-12
1.44247e-05
2.11704e-12
1.44247e-05
1.69501e-12
1.44247e-05
1.09511e-12
1.44247e-05
4.32009e-13
1.44247e-05
-1.77129e-13
1.44247e-05
-6.60956e-13
1.44247e-05
-9.9477e-13
1.44247e-05
-1.17917e-12
1.44247e-05
-1.27064e-12
1.44247e-05
-1.30489e-12
1.44247e-05
-1.26695e-12
1.44247e-05
-1.10295e-12
1.44247e-05
-7.68758e-13
1.44247e-05
-3.04131e-13
1.44247e-05
1.24356e-13
1.44247e-05
3.18155e-13
1.44247e-05
6.71327e-15
1.44247e-05
-8.7876e-13
1.44247e-05
-1.97117e-12
-1.89373e-12
9.87455e-06
4.51798e-12
9.87455e-06
5.27561e-12
9.87456e-06
3.79762e-12
9.87456e-06
1.67039e-12
9.87456e-06
2.21679e-14
9.87456e-06
-9.69122e-13
9.87456e-06
-1.39088e-12
9.87456e-06
-1.46377e-12
9.87456e-06
-1.5106e-12
9.87456e-06
-1.84085e-12
9.87457e-06
-2.52563e-12
9.87457e-06
-3.33281e-12
9.87457e-06
-3.88794e-12
9.87457e-06
-3.87056e-12
9.87457e-06
-3.20734e-12
9.87457e-06
-2.01971e-12
9.87457e-06
-6.59687e-13
9.87457e-06
7.0713e-13
9.87457e-06
1.86188e-12
9.87457e-06
2.65751e-12
9.87457e-06
2.98428e-12
9.87457e-06
2.79162e-12
9.87457e-06
2.13969e-12
9.87457e-06
1.20217e-12
9.87457e-06
2.04461e-13
9.87457e-06
-6.52644e-13
9.87457e-06
-1.2161e-12
9.87457e-06
-1.41364e-12
9.87457e-06
-1.21917e-12
9.87457e-06
-6.52908e-13
9.87457e-06
1.10528e-13
9.87457e-06
8.18905e-13
9.87457e-06
1.15684e-12
9.87457e-06
9.58735e-13
9.87457e-06
3.24011e-13
9.87457e-06
-4.89617e-13
9.87457e-06
-1.13449e-12
9.87457e-06
-1.38235e-12
9.87457e-06
-1.19e-12
9.87457e-06
-6.25671e-13
9.87457e-06
1.10625e-13
9.87457e-06
9.62474e-13
9.87457e-06
1.80251e-12
9.87457e-06
2.48939e-12
9.87457e-06
2.86083e-12
9.87456e-06
2.80738e-12
9.87456e-06
2.34837e-12
9.87456e-06
1.6427e-12
9.87457e-06
8.93339e-13
9.87457e-06
2.42593e-13
9.87457e-06
-2.52256e-13
9.87457e-06
-5.89601e-13
9.87457e-06
-7.628e-13
9.87457e-06
-7.51584e-13
9.87457e-06
-5.42799e-13
9.87457e-06
-2.35575e-13
9.87457e-06
5.04541e-14
9.87457e-06
2.04306e-13
9.87457e-06
1.93063e-13
9.87457e-06
1.10427e-13
9.87457e-06
4.53213e-14
9.87457e-06
4.58629e-14
9.87457e-06
6.68216e-14
9.87457e-06
6.27123e-14
9.87457e-06
2.89101e-14
9.87457e-06
-8.7414e-15
9.87457e-06
-1.17855e-14
9.87457e-06
-8.05198e-15
9.87457e-06
-5.05122e-14
9.87457e-06
-1.67509e-13
9.87457e-06
-3.24422e-13
9.87457e-06
-4.16114e-13
9.87457e-06
-3.28282e-13
9.87457e-06
-3.05386e-14
9.87457e-06
4.27428e-13
9.87457e-06
9.64052e-13
9.87457e-06
1.49034e-12
9.87457e-06
1.94076e-12
9.87457e-06
2.24707e-12
9.87457e-06
2.33264e-12
9.87457e-06
2.14283e-12
9.87457e-06
1.68461e-12
9.87457e-06
1.03252e-12
9.87457e-06
3.33748e-13
9.87457e-06
-3.01965e-13
9.87457e-06
-7.9317e-13
9.87457e-06
-1.12293e-12
9.87457e-06
-1.31759e-12
9.87457e-06
-1.41861e-12
9.87457e-06
-1.45767e-12
9.87457e-06
-1.43994e-12
9.87457e-06
-1.31808e-12
9.87457e-06
-1.03851e-12
9.87457e-06
-6.16708e-13
9.87457e-06
-1.6924e-13
9.87457e-06
1.02211e-13
9.87457e-06
-2.18193e-14
9.87457e-06
-6.23335e-13
9.87456e-06
-1.34454e-12
-1.18116e-12
3.80097e-06
3.80098e-06
3.80098e-06
3.80099e-06
3.80099e-06
3.80099e-06
3.80099e-06
3.80099e-06
3.80099e-06
3.80099e-06
3.80099e-06
3.80099e-06
3.80099e-06
3.80099e-06
3.80099e-06
3.80099e-06
3.80099e-06
3.80099e-06
3.80099e-06
3.80099e-06
3.80099e-06
3.80099e-06
3.80099e-06
3.80099e-06
3.80099e-06
3.80099e-06
3.80099e-06
3.80099e-06
3.80099e-06
3.80099e-06
3.80099e-06
3.80099e-06
3.80099e-06
3.80099e-06
3.80099e-06
3.80099e-06
3.80099e-06
3.80099e-06
3.80099e-06
3.80099e-06
3.80099e-06
3.80099e-06
3.80099e-06
3.80099e-06
3.80099e-06
3.80099e-06
3.80099e-06
3.80099e-06
3.80099e-06
3.80099e-06
3.80099e-06
3.80099e-06
3.80099e-06
3.80099e-06
3.80099e-06
3.80099e-06
3.80099e-06
3.80099e-06
3.80099e-06
3.80099e-06
3.80099e-06
3.80099e-06
3.80099e-06
3.80099e-06
3.80099e-06
3.80099e-06
3.80099e-06
3.80099e-06
3.80099e-06
3.80099e-06
3.80099e-06
3.80099e-06
3.80099e-06
3.80099e-06
3.80099e-06
3.80099e-06
3.80099e-06
3.80099e-06
3.80099e-06
3.80099e-06
3.80099e-06
3.80099e-06
3.80099e-06
3.80099e-06
3.80099e-06
3.80099e-06
3.80099e-06
3.80099e-06
3.80099e-06
3.80099e-06
3.80099e-06
3.80099e-06
3.80099e-06
3.80099e-06
3.80099e-06
3.80099e-06
3.80099e-06
3.80099e-06
3.80098e-06
)
;

boundaryField
{
    inlet
    {
        type            calculated;
        value           nonuniform List<scalar> 10(-3.80098e-06 -9.87455e-06 -1.44247e-05 -1.74555e-05 -1.89701e-05 -1.89701e-05 -1.74555e-05 -1.44247e-05 -9.87454e-06 -3.80097e-06);
    }
    outlet
    {
        type            calculated;
        value           nonuniform List<scalar> 10(3.80098e-06 9.87455e-06 1.44247e-05 1.74555e-05 1.89701e-05 1.89701e-05 1.74555e-05 1.44247e-05 9.87456e-06 3.80098e-06);
    }
    walls
    {
        type            calculated;
        value           uniform 0;
    }
    frontAndBack
    {
        type            empty;
    }
}


// ************************************************************************* //
