/*--------------------------------*- C++ -*----------------------------------*\
| =========                 |                                                 |
| \\      /  F ield         | OpenFOAM: The Open Source CFD Toolbox           |
|  \\    /   O peration     | Version:  2406                                  |
|   \\  /    A nd           | Website:  www.openfoam.com                      |
|    \\/     M anipulation  |                                                 |
\*---------------------------------------------------------------------------*/
FoamFile
{
    version     2.0;
    format      ascii;
    arch        "LSB;label=32;scalar=64";
    class       volVectorField;
    location    "0.5";
    object      U;
}
// * * * * * * * * * * * * * * * * * * * * * * * * * * * * * * * * * * * * * //

dimensions      [0 1 -1 0 0 0 0];

internalField   nonuniform List<vector> 
1000
(
(0.0380098 -1.31633e-08 0)
(0.0380098 -1.83068e-08 0)
(0.0380099 -1.41444e-08 0)
(0.0380099 -5.03114e-09 0)
(0.0380099 3.46996e-09 0)
(0.0380099 1.01817e-08 0)
(0.0380099 1.34358e-08 0)
(0.0380099 1.18467e-08 0)
(0.0380099 5.70289e-09 0)
(0.0380099 -2.08336e-09 0)
(0.0380099 -7.62156e-09 0)
(0.0380099 -8.7602e-09 0)
(0.0380099 -6.61683e-09 0)
(0.0380099 -3.92599e-09 0)
(0.0380099 -2.9732e-09 0)
(0.0380099 -4.95166e-09 0)
(0.0380099 -9.28325e-09 0)
(0.0380099 -1.40567e-08 0)
(0.0380099 -1.7252e-08 0)
(0.0380099 -1.73223e-08 0)
(0.0380099 -1.33601e-08 0)
(0.0380099 -5.76865e-09 0)
(0.0380099 3.51783e-09 0)
(0.0380099 1.1819e-08 0)
(0.0380099 1.6313e-08 0)
(0.0380099 1.65834e-08 0)
(0.0380099 1.29998e-08 0)
(0.0380099 7.043e-09 0)
(0.0380099 3.29069e-10 0)
(0.0380099 -5.34282e-09 0)
(0.0380099 -8.70987e-09 0)
(0.0380099 -9.34319e-09 0)
(0.0380099 -7.30399e-09 0)
(0.0380099 -3.32427e-09 0)
(0.0380099 1.04724e-09 0)
(0.0380099 4.10033e-09 0)
(0.0380099 4.98621e-09 0)
(0.0380099 3.80409e-09 0)
(0.0380099 1.47818e-09 0)
(0.0380099 -1.22493e-09 0)
(0.0380099 -3.91852e-09 0)
(0.0380099 -6.36733e-09 0)
(0.0380099 -8.05413e-09 0)
(0.0380099 -8.47455e-09 0)
(0.0380099 -6.83749e-09 0)
(0.0380099 -2.68467e-09 0)
(0.0380099 3.25189e-09 0)
(0.0380099 9.02568e-09 0)
(0.0380099 1.28305e-08 0)
(0.0380099 1.38784e-08 0)
(0.0380099 1.22113e-08 0)
(0.0380099 8.64091e-09 0)
(0.0380099 4.24324e-09 0)
(0.0380099 -8.17447e-11 0)
(0.0380099 -3.47669e-09 0)
(0.0380099 -5.19001e-09 0)
(0.0380099 -5.00332e-09 0)
(0.0380099 -3.10749e-09 0)
(0.0380099 -4.63277e-10 0)
(0.0380099 1.69916e-09 0)
(0.0380099 2.56955e-09 0)
(0.0380099 2.15405e-09 0)
(0.0380099 1.09857e-09 0)
(0.0380099 1.53344e-10 0)
(0.0380099 -2.65242e-10 0)
(0.0380099 -2.34378e-10 0)
(0.0380099 1.44652e-11 0)
(0.0380099 3.51962e-10 0)
(0.0380099 8.68774e-10 0)
(0.0380099 1.40798e-09 0)
(0.0380099 1.64908e-09 0)
(0.0380099 1.25604e-09 0)
(0.0380099 1.00603e-10 0)
(0.0380099 -1.38404e-09 0)
(0.0380099 -2.60132e-09 0)
(0.0380099 -2.98346e-09 0)
(0.0380099 -2.46801e-09 0)
(0.0380099 -1.28012e-09 0)
(0.0380099 2.34073e-10 0)
(0.0380099 2.05302e-09 0)
(0.0380099 4.16384e-09 0)
(0.0380099 6.25026e-09 0)
(0.0380099 8.06581e-09 0)
(0.0380099 9.2111e-09 0)
(0.0380099 9.41928e-09 0)
(0.0380099 8.65574e-09 0)
(0.0380099 7.0399e-09 0)
(0.0380099 4.73313e-09 0)
(0.0380099 1.96519e-09 0)
(0.0380099 -9.29177e-10 0)
(0.0380099 -3.56926e-09 0)
(0.0380099 -5.51966e-09 0)
(0.0380099 -6.76509e-09 0)
(0.0380099 -6.97887e-09 0)
(0.0380099 -5.6338e-09 0)
(0.0380099 -2.29778e-09 0)
(0.0380099 2.97504e-09 0)
(0.0380098 9.61705e-09 0)
(0.0380098 1.61713e-08 0)
(0.0380098 1.64084e-08 0)
(0.0987456 -3.56896e-08 0)
(0.0987456 -4.85792e-08 0)
(0.0987456 -3.7821e-08 0)
(0.0987456 -1.47334e-08 0)
(0.0987456 7.42347e-09 0)
(0.0987456 2.39051e-08 0)
(0.0987456 3.05447e-08 0)
(0.0987456 2.53341e-08 0)
(0.0987456 1.11711e-08 0)
(0.0987457 -4.79753e-09 0)
(0.0987457 -1.56425e-08 0)
(0.0987457 -1.74898e-08 0)
(0.0987456 -1.24915e-08 0)
(0.0987456 -6.2508e-09 0)
(0.0987456 -4.05518e-09 0)
(0.0987456 -8.55598e-09 0)
(0.0987457 -1.83439e-08 0)
(0.0987457 -2.93065e-08 0)
(0.0987457 -3.6554e-08 0)
(0.0987457 -3.68041e-08 0)
(0.0987457 -2.84889e-08 0)
(0.0987456 -1.26761e-08 0)
(0.0987456 6.50279e-09 0)
(0.0987456 2.37947e-08 0)
(0.0987456 3.40581e-08 0)
(0.0987457 3.52232e-08 0)
(0.0987457 2.78593e-08 0)
(0.0987457 1.50478e-08 0)
(0.0987457 7.56933e-10 0)
(0.0987457 -1.12374e-08 0)
(0.0987457 -1.85244e-08 0)
(0.0987457 -2.00671e-08 0)
(0.0987457 -1.63109e-08 0)
(0.0987457 -8.92831e-09 0)
(0.0987457 -4.3675e-10 0)
(0.0987457 6.38517e-09 0)
(0.0987457 9.66278e-09 0)
(0.0987457 8.89826e-09 0)
(0.0987457 4.89002e-09 0)
(0.0987457 -1.09761e-09 0)
(0.0987457 -7.74571e-09 0)
(0.0987457 -1.40457e-08 0)
(0.0987457 -1.82918e-08 0)
(0.0987457 -1.92115e-08 0)
(0.0987456 -1.54846e-08 0)
(0.0987456 -6.86724e-09 0)
(0.0987456 5.0181e-09 0)
(0.0987456 1.72485e-08 0)
(0.0987456 2.59546e-08 0)
(0.0987456 2.89818e-08 0)
(0.0987456 2.60779e-08 0)
(0.0987456 1.86893e-08 0)
(0.0987456 9.17545e-09 0)
(0.0987456 -9.03193e-11 0)
(0.0987456 -7.10187e-09 0)
(0.0987456 -1.06242e-08 0)
(0.0987456 -1.01558e-08 0)
(0.0987456 -6.36462e-09 0)
(0.0987456 -1.10306e-09 0)
(0.0987456 3.39954e-09 0)
(0.0987456 5.567e-09 0)
(0.0987456 5.15517e-09 0)
(0.0987456 3.14445e-09 0)
(0.0987456 9.50421e-10 0)
(0.0987456 -3.67561e-10 0)
(0.0987456 -5.41532e-10 0)
(0.0987457 1.12892e-10 0)
(0.0987457 1.14478e-09 0)
(0.0987457 2.2936e-09 0)
(0.0987457 3.26437e-09 0)
(0.0987457 3.54533e-09 0)
(0.0987457 2.74751e-09 0)
(0.0987457 7.73336e-10 0)
(0.0987457 -1.87807e-09 0)
(0.0987457 -4.23185e-09 0)
(0.0987457 -5.37604e-09 0)
(0.0987457 -4.95847e-09 0)
(0.0987457 -3.10681e-09 0)
(0.0987456 -2.18378e-10 0)
(0.0987456 3.47625e-09 0)
(0.0987456 7.80092e-09 0)
(0.0987456 1.23321e-08 0)
(0.0987456 1.62587e-08 0)
(0.0987456 1.87996e-08 0)
(0.0987456 1.94396e-08 0)
(0.0987456 1.80515e-08 0)
(0.0987456 1.48287e-08 0)
(0.0987456 1.01371e-08 0)
(0.0987456 4.50171e-09 0)
(0.0987456 -1.34975e-09 0)
(0.0987456 -6.63267e-09 0)
(0.0987456 -1.06182e-08 0)
(0.0987456 -1.28059e-08 0)
(0.0987456 -1.23297e-08 0)
(0.0987456 -7.99148e-09 0)
(0.0987456 1.1121e-09 0)
(0.0987456 1.50782e-08 0)
(0.0987456 3.22333e-08 0)
(0.0987455 4.70914e-08 0)
(0.0987455 4.62551e-08 0)
(0.144247 -3.74826e-08 0)
(0.144247 -5.25277e-08 0)
(0.144247 -4.15151e-08 0)
(0.144247 -1.77971e-08 0)
(0.144247 5.31288e-09 0)
(0.144247 2.27018e-08 0)
(0.144247 2.99446e-08 0)
(0.144247 2.55052e-08 0)
(0.144247 1.3041e-08 0)
(0.144247 -5.07236e-10 0)
(0.144247 -9.27001e-09 0)
(0.144247 -1.04012e-08 0)
(0.144247 -5.50666e-09 0)
(0.144247 8.61421e-10 0)
(0.144247 3.94001e-09 0)
(0.144247 9.54621e-10 0)
(0.144247 -7.51268e-09 0)
(0.144247 -1.83244e-08 0)
(0.144247 -2.6969e-08 0)
(0.144247 -2.99868e-08 0)
(0.144247 -2.58769e-08 0)
(0.144247 -1.52177e-08 0)
(0.144247 -7.47688e-10 0)
(0.144247 1.36695e-08 0)
(0.144247 2.41551e-08 0)
(0.144247 2.77774e-08 0)
(0.144247 2.4093e-08 0)
(0.144247 1.48763e-08 0)
(0.144247 3.31145e-09 0)
(0.144247 -7.33038e-09 0)
(0.144247 -1.46953e-08 0)
(0.144247 -1.75478e-08 0)
(0.144247 -1.60394e-08 0)
(0.144247 -1.13115e-08 0)
(0.144247 -4.84823e-09 0)
(0.144247 1.65908e-09 0)
(0.144247 6.55206e-09 0)
(0.144247 8.58776e-09 0)
(0.144247 7.20088e-09 0)
(0.144247 2.71506e-09 0)
(0.144247 -3.69209e-09 0)
(0.144247 -1.06269e-08 0)
(0.144247 -1.61967e-08 0)
(0.144247 -1.87688e-08 0)
(0.144247 -1.72561e-08 0)
(0.144247 -1.16128e-08 0)
(0.144247 -2.9206e-09 0)
(0.144247 7.10939e-09 0)
(0.144247 1.56364e-08 0)
(0.144247 2.03539e-08 0)
(0.144247 2.03061e-08 0)
(0.144247 1.5959e-08 0)
(0.144247 8.93959e-09 0)
(0.144247 1.39854e-09 0)
(0.144247 -4.70027e-09 0)
(0.144247 -8.14246e-09 0)
(0.144247 -8.39565e-09 0)
(0.144247 -5.94519e-09 0)
(0.144247 -2.01478e-09 0)
(0.144247 1.87714e-09 0)
(0.144247 4.44518e-09 0)
(0.144247 5.07541e-09 0)
(0.144247 4.01898e-09 0)
(0.144247 2.15287e-09 0)
(0.144247 4.84149e-10 0)
(0.144247 -2.68432e-10 0)
(0.144247 3.59306e-11 0)
(0.144247 1.05443e-09 0)
(0.144247 2.27362e-09 0)
(0.144247 3.29204e-09 0)
(0.144247 3.73005e-09 0)
(0.144247 3.40185e-09 0)
(0.144247 2.28431e-09 0)
(0.144247 4.83239e-10 0)
(0.144247 -1.59308e-09 0)
(0.144247 -3.43249e-09 0)
(0.144247 -4.54806e-09 0)
(0.144247 -4.60347e-09 0)
(0.144247 -3.49006e-09 0)
(0.144247 -1.31337e-09 0)
(0.144247 1.7149e-09 0)
(0.144247 5.34664e-09 0)
(0.144247 8.86254e-09 0)
(0.144247 1.16214e-08 0)
(0.144247 1.3147e-08 0)
(0.144247 1.3198e-08 0)
(0.144247 1.18137e-08 0)
(0.144247 9.26603e-09 0)
(0.144247 5.98345e-09 0)
(0.144247 2.52907e-09 0)
(0.144247 -4.93829e-10 0)
(0.144247 -2.60606e-09 0)
(0.144247 -3.20258e-09 0)
(0.144247 -1.41149e-09 0)
(0.144247 4.23882e-09 0)
(0.144247 1.51535e-08 0)
(0.144247 3.18515e-08 0)
(0.144247 5.19703e-08 0)
(0.144247 6.70432e-08 0)
(0.144247 6.39711e-08 0)
(0.174555 -1.24334e-08 0)
(0.174555 -2.30208e-08 0)
(0.174555 -1.65917e-08 0)
(0.174555 -3.1929e-09 0)
(0.174555 9.85204e-09 0)
(0.174555 2.10425e-08 0)
(0.174555 2.76365e-08 0)
(0.174555 2.72276e-08 0)
(0.174555 2.05326e-08 0)
(0.174555 1.14066e-08 0)
(0.174555 4.61581e-09 0)
(0.174555 2.72214e-09 0)
(0.174555 5.42283e-09 0)
(0.174555 1.02002e-08 0)
(0.174555 1.36772e-08 0)
(0.174555 1.32883e-08 0)
(0.174555 8.06992e-09 0)
(0.174555 -9.57261e-10 0)
(0.174555 -1.10531e-08 0)
(0.174555 -1.89893e-08 0)
(0.174555 -2.25041e-08 0)
(0.174555 -2.06678e-08 0)
(0.174555 -1.39004e-08 0)
(0.174555 -4.16158e-09 0)
(0.174555 5.94908e-09 0)
(0.174555 1.35605e-08 0)
(0.174555 1.69161e-08 0)
(0.174555 1.53621e-08 0)
(0.174555 9.80138e-09 0)
(0.174555 2.1256e-09 0)
(0.174555 -5.27206e-09 0)
(0.174555 -1.06108e-08 0)
(0.174555 -1.27945e-08 0)
(0.174555 -1.16573e-08 0)
(0.174555 -7.8565e-09 0)
(0.174555 -2.53518e-09 0)
(0.174555 2.86732e-09 0)
(0.174555 6.9338e-09 0)
(0.174555 8.54941e-09 0)
(0.174555 7.17515e-09 0)
(0.174555 2.98477e-09 0)
(0.174555 -3.09486e-09 0)
(0.174555 -9.77963e-09 0)
(0.174555 -1.53772e-08 0)
(0.174555 -1.84782e-08 0)
(0.174555 -1.82097e-08 0)
(0.174555 -1.45089e-08 0)
(0.174555 -8.346e-09 0)
(0.174555 -1.08954e-09 0)
(0.174555 5.44667e-09 0)
(0.174555 9.73349e-09 0)
(0.174555 1.09788e-08 0)
(0.174555 9.25941e-09 0)
(0.174555 5.46837e-09 0)
(0.174555 9.52245e-10 0)
(0.174555 -2.82783e-09 0)
(0.174555 -4.95745e-09 0)
(0.174555 -5.10496e-09 0)
(0.174555 -3.53802e-09 0)
(0.174555 -1.04228e-09 0)
(0.174555 1.40885e-09 0)
(0.174555 3.00472e-09 0)
(0.174555 3.36109e-09 0)
(0.174555 2.63488e-09 0)
(0.174555 1.37028e-09 0)
(0.174555 2.19399e-10 0)
(0.174555 -2.91198e-10 0)
(0.174555 3.21647e-11 0)
(0.174555 1.00187e-09 0)
(0.174555 2.2379e-09 0)
(0.174555 3.31963e-09 0)
(0.174555 3.83366e-09 0)
(0.174555 3.54909e-09 0)
(0.174555 2.37732e-09 0)
(0.174555 3.65825e-10 0)
(0.174555 -2.23533e-09 0)
(0.174555 -4.95739e-09 0)
(0.174555 -7.30812e-09 0)
(0.174555 -8.78685e-09 0)
(0.174555 -9.06187e-09 0)
(0.174555 -8.03704e-09 0)
(0.174555 -5.85437e-09 0)
(0.174555 -2.80012e-09 0)
(0.174555 6.15595e-10 0)
(0.174555 3.81146e-09 0)
(0.174555 6.33839e-09 0)
(0.174555 7.98323e-09 0)
(0.174555 8.80644e-09 0)
(0.174555 9.07285e-09 0)
(0.174555 9.12141e-09 0)
(0.174555 9.278e-09 0)
(0.174555 9.77396e-09 0)
(0.174555 1.0866e-08 0)
(0.174555 1.30048e-08 0)
(0.174555 1.76369e-08 0)
(0.174555 2.65213e-08 0)
(0.174555 4.03203e-08 0)
(0.174555 5.66502e-08 0)
(0.174555 6.72735e-08 0)
(0.174555 6.34401e-08 0)
(0.189701 2.78271e-08 0)
(0.189701 2.63029e-08 0)
(0.189701 2.8334e-08 0)
(0.189701 2.81134e-08 0)
(0.189701 2.55333e-08 0)
(0.189701 2.3867e-08 0)
(0.189701 2.42479e-08 0)
(0.189701 2.49589e-08 0)
(0.189701 2.38761e-08 0)
(0.189701 2.06217e-08 0)
(0.189701 1.68207e-08 0)
(0.189701 1.43066e-08 0)
(0.189701 1.4148e-08 0)
(0.189701 1.59431e-08 0)
(0.189701 1.81982e-08 0)
(0.189701 1.93232e-08 0)
(0.189701 1.79841e-08 0)
(0.189701 1.34922e-08 0)
(0.189701 6.1104e-09 0)
(0.189701 -2.73405e-09 0)
(0.189701 -1.10868e-08 0)
(0.189701 -1.70671e-08 0)
(0.189701 -1.93221e-08 0)
(0.189701 -1.7398e-08 0)
(0.189701 -1.1853e-08 0)
(0.189701 -4.26594e-09 0)
(0.189701 3.35546e-09 0)
(0.189701 8.97559e-09 0)
(0.189701 1.12336e-08 0)
(0.189701 9.78154e-09 0)
(0.189701 5.5561e-09 0)
(0.189701 1.76958e-10 0)
(0.189701 -4.56855e-09 0)
(0.189701 -7.20325e-09 0)
(0.189701 -7.17622e-09 0)
(0.189701 -4.82096e-09 0)
(0.189701 -1.11908e-09 0)
(0.189701 2.73105e-09 0)
(0.189701 5.71611e-09 0)
(0.189701 7.12924e-09 0)
(0.189701 6.50054e-09 0)
(0.189701 3.76276e-09 0)
(0.189701 -9.17085e-10 0)
(0.189701 -6.76435e-09 0)
(0.189701 -1.26548e-08 0)
(0.189701 -1.7206e-08 0)
(0.189701 -1.93171e-08 0)
(0.189701 -1.85978e-08 0)
(0.189701 -1.52197e-08 0)
(0.189701 -9.98851e-09 0)
(0.189701 -4.09191e-09 0)
(0.189701 1.22897e-09 0)
(0.189701 4.90999e-09 0)
(0.189701 6.36267e-09 0)
(0.189701 5.61064e-09 0)
(0.189701 3.32386e-09 0)
(0.189701 5.26688e-10 0)
(0.189701 -1.73833e-09 0)
(0.189701 -2.78218e-09 0)
(0.189701 -2.51151e-09 0)
(0.189701 -1.34006e-09 0)
(0.189701 1.05327e-10 0)
(0.189701 1.25056e-09 0)
(0.189701 1.74548e-09 0)
(0.189701 1.54996e-09 0)
(0.189701 8.36636e-10 0)
(0.189701 -2.62182e-11 0)
(0.189701 -6.11033e-10 0)
(0.189701 -6.08939e-10 0)
(0.189701 5.25727e-11 0)
(0.189701 1.17409e-09 0)
(0.189701 2.31087e-09 0)
(0.189701 2.93233e-09 0)
(0.189701 2.69108e-09 0)
(0.189701 1.43143e-09 0)
(0.189701 -7.80461e-10 0)
(0.189701 -3.715e-09 0)
(0.189701 -6.97379e-09 0)
(0.189701 -1.00688e-08 0)
(0.189701 -1.24752e-08 0)
(0.189701 -1.37117e-08 0)
(0.189701 -1.34968e-08 0)
(0.189701 -1.17779e-08 0)
(0.189701 -8.84636e-09 0)
(0.189701 -5.20648e-09 0)
(0.189701 -1.42197e-09 0)
(0.189701 2.11018e-09 0)
(0.189701 5.28826e-09 0)
(0.189701 8.2753e-09 0)
(0.189701 1.13072e-08 0)
(0.189701 1.44497e-08 0)
(0.189701 1.75447e-08 0)
(0.189701 2.04151e-08 0)
(0.189701 2.32044e-08 0)
(0.189701 2.65946e-08 0)
(0.189701 3.18997e-08 0)
(0.189701 3.95993e-08 0)
(0.189701 4.77805e-08 0)
(0.189701 5.10298e-08 0)
(0.189701 4.72273e-08 0)
(0.189701 6.82606e-08 0)
(0.189701 7.7026e-08 0)
(0.189701 7.49407e-08 0)
(0.189701 6.1594e-08 0)
(0.189701 4.42185e-08 0)
(0.189701 2.92297e-08 0)
(0.189701 2.09278e-08 0)
(0.189701 1.91864e-08 0)
(0.189701 2.02917e-08 0)
(0.189701 2.04053e-08 0)
(0.189701 1.81309e-08 0)
(0.189701 1.43568e-08 0)
(0.189701 1.11269e-08 0)
(0.189701 9.89344e-09 0)
(0.189701 1.09553e-08 0)
(0.189701 1.37026e-08 0)
(0.189701 1.67757e-08 0)
(0.189701 1.8499e-08 0)
(0.189701 1.72948e-08 0)
(0.189701 1.25446e-08 0)
(0.189701 4.86173e-09 0)
(0.189701 -4.16177e-09 0)
(0.189701 -1.23746e-08 0)
(0.189701 -1.77857e-08 0)
(0.189701 -1.91392e-08 0)
(0.189701 -1.61218e-08 0)
(0.189701 -9.71426e-09 0)
(0.189701 -1.6814e-09 0)
(0.189701 5.76108e-09 0)
(0.189701 1.05953e-08 0)
(0.189701 1.17656e-08 0)
(0.189701 9.56282e-09 0)
(0.189701 5.18822e-09 0)
(0.189701 4.01369e-10 0)
(0.189701 -3.243e-09 0)
(0.189701 -4.9836e-09 0)
(0.189701 -4.83068e-09 0)
(0.189701 -3.22373e-09 0)
(0.189701 -6.63219e-10 0)
(0.189701 2.39689e-09 0)
(0.189701 5.31044e-09 0)
(0.189701 7.23592e-09 0)
(0.189701 7.20923e-09 0)
(0.189701 4.63544e-09 0)
(0.189701 -2.50585e-10 0)
(0.189701 -6.34218e-09 0)
(0.189701 -1.21266e-08 0)
(0.189701 -1.62657e-08 0)
(0.189701 -1.79154e-08 0)
(0.189701 -1.679e-08 0)
(0.189701 -1.31473e-08 0)
(0.189701 -7.7973e-09 0)
(0.189701 -1.95913e-09 0)
(0.189701 2.98926e-09 0)
(0.189701 5.90978e-09 0)
(0.189701 6.35763e-09 0)
(0.189701 4.73687e-09 0)
(0.189701 2.10323e-09 0)
(0.189701 -3.67749e-10 0)
(0.189701 -1.9035e-09 0)
(0.189701 -2.30804e-09 0)
(0.189701 -1.82542e-09 0)
(0.189701 -8.47579e-10 0)
(0.189701 1.90557e-10 0)
(0.189701 9.11182e-10 0)
(0.189701 1.03208e-09 0)
(0.189701 4.59731e-10 0)
(0.189701 -5.81309e-10 0)
(0.189701 -1.61994e-09 0)
(0.189701 -2.13655e-09 0)
(0.189701 -1.87185e-09 0)
(0.189701 -9.45067e-10 0)
(0.189701 1.94775e-10 0)
(0.189701 1.08292e-09 0)
(0.189701 1.41269e-09 0)
(0.189701 1.04954e-09 0)
(0.189701 -8.35515e-11 0)
(0.189701 -1.95201e-09 0)
(0.189701 -4.43866e-09 0)
(0.189701 -7.2367e-09 0)
(0.189701 -9.80642e-09 0)
(0.189701 -1.15557e-08 0)
(0.189701 -1.2027e-08 0)
(0.189701 -1.11482e-08 0)
(0.189701 -9.11229e-09 0)
(0.189701 -6.35653e-09 0)
(0.189701 -3.30803e-09 0)
(0.189701 -1.68279e-10 0)
(0.189701 3.17656e-09 0)
(0.189701 6.94726e-09 0)
(0.189701 1.11961e-08 0)
(0.189701 1.56137e-08 0)
(0.189701 1.96868e-08 0)
(0.189701 2.32133e-08 0)
(0.189701 2.60174e-08 0)
(0.189701 2.84091e-08 0)
(0.189701 3.02403e-08 0)
(0.189701 3.00643e-08 0)
(0.189701 2.59338e-08 0)
(0.189701 2.26174e-08 0)
(0.174555 9.42893e-08 0)
(0.174555 1.10518e-07 0)
(0.174555 1.03295e-07 0)
(0.174555 7.91363e-08 0)
(0.174555 5.18628e-08 0)
(0.174555 2.87827e-08 0)
(0.174555 1.47616e-08 0)
(0.174555 1.03078e-08 0)
(0.174555 1.11046e-08 0)
(0.174555 1.13947e-08 0)
(0.174555 8.05e-09 0)
(0.174555 1.77246e-09 0)
(0.174555 -4.51221e-09 0)
(0.174555 -7.90616e-09 0)
(0.174555 -6.94941e-09 0)
(0.174555 -1.82548e-09 0)
(0.174555 5.84456e-09 0)
(0.174555 1.39465e-08 0)
(0.174555 1.99869e-08 0)
(0.174555 2.19777e-08 0)
(0.174555 1.90949e-08 0)
(0.174555 1.1961e-08 0)
(0.174555 2.43963e-09 0)
(0.174555 -7.01585e-09 0)
(0.174555 -1.42053e-08 0)
(0.174555 -1.73968e-08 0)
(0.174555 -1.60252e-08 0)
(0.174555 -1.06e-08 0)
(0.174555 -2.68828e-09 0)
(0.174555 5.4517e-09 0)
(0.174555 1.14311e-08 0)
(0.174555 1.37652e-08 0)
(0.174555 1.21998e-08 0)
(0.174555 7.61618e-09 0)
(0.174555 1.7668e-09 0)
(0.174555 -3.62277e-09 0)
(0.174555 -7.31939e-09 0)
(0.174555 -8.68558e-09 0)
(0.174555 -7.5109e-09 0)
(0.174555 -3.9045e-09 0)
(0.174555 1.51476e-09 0)
(0.174555 7.62652e-09 0)
(0.174555 1.27434e-08 0)
(0.174555 1.52031e-08 0)
(0.174555 1.4127e-08 0)
(0.174555 9.7273e-09 0)
(0.174555 3.28005e-09 0)
(0.174555 -3.51052e-09 0)
(0.174555 -9.03767e-09 0)
(0.174555 -1.24132e-08 0)
(0.174555 -1.30781e-08 0)
(0.174555 -1.10457e-08 0)
(0.174555 -6.93945e-09 0)
(0.174555 -1.95543e-09 0)
(0.174555 2.41222e-09 0)
(0.174555 4.99272e-09 0)
(0.174555 5.31581e-09 0)
(0.174555 3.82987e-09 0)
(0.174555 1.56065e-09 0)
(0.174555 -4.99927e-10 0)
(0.174555 -1.74809e-09 0)
(0.174555 -2.1068e-09 0)
(0.174555 -1.73605e-09 0)
(0.174555 -9.08557e-10 0)
(0.174555 3.04136e-11 0)
(0.174555 6.76822e-10 0)
(0.174555 6.31555e-10 0)
(0.174555 -2.63358e-10 0)
(0.174555 -1.79164e-09 0)
(0.174555 -3.34611e-09 0)
(0.174555 -4.25261e-09 0)
(0.174555 -4.15817e-09 0)
(0.174555 -3.06572e-09 0)
(0.174555 -1.29149e-09 0)
(0.174555 8.24634e-10 0)
(0.174555 2.96872e-09 0)
(0.174555 4.82519e-09 0)
(0.174555 5.96355e-09 0)
(0.174555 5.95899e-09 0)
(0.174555 4.59603e-09 0)
(0.174555 2.07629e-09 0)
(0.174555 -1.01291e-09 0)
(0.174555 -3.9187e-09 0)
(0.174555 -6.02515e-09 0)
(0.174555 -7.12837e-09 0)
(0.174555 -7.22451e-09 0)
(0.174555 -6.53467e-09 0)
(0.174555 -5.31375e-09 0)
(0.174555 -3.60887e-09 0)
(0.174555 -1.27682e-09 0)
(0.174555 1.86574e-09 0)
(0.174555 5.78821e-09 0)
(0.174555 1.01023e-08 0)
(0.174555 1.41059e-08 0)
(0.174555 1.69572e-08 0)
(0.174555 1.78083e-08 0)
(0.174555 1.56563e-08 0)
(0.174555 9.3793e-09 0)
(0.174555 1.05924e-10 0)
(0.174555 -1.88191e-09 0)
(0.144247 9.48081e-08 0)
(0.144247 1.12129e-07 0)
(0.144247 9.90125e-08 0)
(0.144247 6.89037e-08 0)
(0.144247 3.92165e-08 0)
(0.144247 1.60625e-08 0)
(0.144247 2.53151e-09 0)
(0.144247 -1.79834e-09 0)
(0.144247 -1.43959e-09 0)
(0.144247 -2.28137e-09 0)
(0.144247 -7.51243e-09 0)
(0.144247 -1.6017e-08 0)
(0.144247 -2.40698e-08 0)
(0.144247 -2.79113e-08 0)
(0.144247 -2.56682e-08 0)
(0.144247 -1.77358e-08 0)
(0.144247 -6.19758e-09 0)
(0.144247 6.55705e-09 0)
(0.144247 1.79394e-08 0)
(0.144247 2.55514e-08 0)
(0.144247 2.77964e-08 0)
(0.144247 2.43656e-08 0)
(0.144247 1.63619e-08 0)
(0.144247 5.99058e-09 0)
(0.144247 -4.09679e-09 0)
(0.144247 -1.18064e-08 0)
(0.144247 -1.55995e-08 0)
(0.144247 -1.47626e-08 0)
(0.144247 -9.59877e-09 0)
(0.144247 -1.55867e-09 0)
(0.144247 6.78085e-09 0)
(0.144247 1.27273e-08 0)
(0.144247 1.44457e-08 0)
(0.144247 1.15154e-08 0)
(0.144247 5.1802e-09 0)
(0.144247 -2.31071e-09 0)
(0.144247 -8.60208e-09 0)
(0.144247 -1.20255e-08 0)
(0.144247 -1.18288e-08 0)
(0.144247 -8.02751e-09 0)
(0.144247 -1.3217e-09 0)
(0.144247 7.1946e-09 0)
(0.144247 1.57586e-08 0)
(0.144247 2.23039e-08 0)
(0.144247 2.51008e-08 0)
(0.144247 2.34698e-08 0)
(0.144247 1.81037e-08 0)
(0.144247 1.06525e-08 0)
(0.144247 3.07698e-09 0)
(0.144247 -3.13841e-09 0)
(0.144247 -7.32345e-09 0)
(0.144247 -9.1018e-09 0)
(0.144247 -8.43209e-09 0)
(0.144247 -5.7704e-09 0)
(0.144247 -2.14776e-09 0)
(0.144247 1.13446e-09 0)
(0.144247 3.01508e-09 0)
(0.144247 3.12652e-09 0)
(0.144247 1.97382e-09 0)
(0.144247 4.43731e-10 0)
(0.144247 -7.18491e-10 0)
(0.144247 -1.24534e-09 0)
(0.144247 -1.25028e-09 0)
(0.144247 -9.14342e-10 0)
(0.144247 -3.96874e-10 0)
(0.144247 1.28145e-10 0)
(0.144247 3.5747e-10 0)
(0.144247 -8.67258e-11 0)
(0.144247 -1.37958e-09 0)
(0.144247 -3.23688e-09 0)
(0.144247 -4.90179e-09 0)
(0.144247 -5.56762e-09 0)
(0.144247 -4.75635e-09 0)
(0.144247 -2.46236e-09 0)
(0.144247 1.01455e-09 0)
(0.144247 5.21051e-09 0)
(0.144247 9.61585e-09 0)
(0.144247 1.35339e-08 0)
(0.144247 1.61451e-08 0)
(0.144247 1.67186e-08 0)
(0.144247 1.49495e-08 0)
(0.144247 1.11628e-08 0)
(0.144247 6.19681e-09 0)
(0.144247 1.16933e-09 0)
(0.144247 -3.17668e-09 0)
(0.144247 -6.40595e-09 0)
(0.144247 -8.40318e-09 0)
(0.144247 -9.34586e-09 0)
(0.144247 -9.5565e-09 0)
(0.144247 -9.1755e-09 0)
(0.144247 -8.00673e-09 0)
(0.144247 -5.6635e-09 0)
(0.144247 -2.03656e-09 0)
(0.144247 2.24581e-09 0)
(0.144247 5.80592e-09 0)
(0.144247 6.59498e-09 0)
(0.144247 2.84964e-09 0)
(0.144247 -6.38165e-09 0)
(0.144247 -1.77207e-08 0)
(0.144247 -1.77471e-08 0)
(0.0987454 6.73665e-08 0)
(0.0987455 7.87989e-08 0)
(0.0987455 6.26774e-08 0)
(0.0987456 3.51933e-08 0)
(0.0987456 1.19807e-08 0)
(0.0987456 -3.60684e-09 0)
(0.0987456 -1.12224e-08 0)
(0.0987456 -1.28407e-08 0)
(0.0987456 -1.25976e-08 0)
(0.0987456 -1.48419e-08 0)
(0.0987457 -2.14427e-08 0)
(0.0987457 -3.05138e-08 0)
(0.0987457 -3.78647e-08 0)
(0.0987457 -3.97404e-08 0)
(0.0987457 -3.47556e-08 0)
(0.0987457 -2.39741e-08 0)
(0.0987457 -9.5942e-09 0)
(0.0987457 5.32903e-09 0)
(0.0987457 1.83792e-08 0)
(0.0987457 2.76395e-08 0)
(0.0987457 3.16741e-08 0)
(0.0987457 2.9882e-08 0)
(0.0987457 2.29276e-08 0)
(0.0987457 1.26871e-08 0)
(0.0987457 1.77619e-09 0)
(0.0987457 -7.60955e-09 0)
(0.0987457 -1.37592e-08 0)
(0.0987457 -1.56299e-08 0)
(0.0987457 -1.29061e-08 0)
(0.0987457 -6.2759e-09 0)
(0.0987457 2.35372e-09 0)
(0.0987457 9.87633e-09 0)
(0.0987457 1.34282e-08 0)
(0.0987457 1.16223e-08 0)
(0.0987457 5.12098e-09 0)
(0.0987457 -3.34402e-09 0)
(0.0987457 -1.05404e-08 0)
(0.0987457 -1.41304e-08 0)
(0.0987457 -1.33506e-08 0)
(0.0987457 -8.64584e-09 0)
(0.0987457 -8.37647e-10 0)
(0.0987457 8.58176e-09 0)
(0.0987457 1.80836e-08 0)
(0.0987457 2.58916e-08 0)
(0.0987457 3.01704e-08 0)
(0.0987456 2.97944e-08 0)
(0.0987456 2.50377e-08 0)
(0.0987456 1.75072e-08 0)
(0.0987456 9.26903e-09 0)
(0.0987457 2.06714e-09 0)
(0.0987457 -3.39917e-09 0)
(0.0987457 -6.92838e-09 0)
(0.0987457 -8.38133e-09 0)
(0.0987457 -7.68277e-09 0)
(0.0987457 -5.16434e-09 0)
(0.0987457 -1.88134e-09 0)
(0.0987457 8.9624e-10 0)
(0.0987457 2.19666e-09 0)
(0.0987457 1.96588e-09 0)
(0.0987457 1.01243e-09 0)
(0.0987457 1.91719e-10 0)
(0.0987457 -7.42676e-11 0)
(0.0987457 -1.78951e-11 0)
(0.0987457 3.00967e-11 0)
(0.0987457 -9.85769e-12 0)
(0.0987457 1.73966e-12 0)
(0.0987457 8.18953e-11 0)
(0.0987457 -6.68772e-11 0)
(0.0987457 -8.28177e-10 0)
(0.0987457 -2.34493e-09 0)
(0.0987457 -4.10323e-09 0)
(0.0987457 -5.04765e-09 0)
(0.0987457 -4.27538e-09 0)
(0.0987457 -1.48186e-09 0)
(0.0987457 2.95347e-09 0)
(0.0987457 8.32813e-09 0)
(0.0987457 1.38987e-08 0)
(0.0987457 1.89033e-08 0)
(0.0987457 2.24786e-08 0)
(0.0987457 2.37389e-08 0)
(0.0987457 2.20997e-08 0)
(0.0987457 1.76641e-08 0)
(0.0987457 1.12853e-08 0)
(0.0987457 4.19815e-09 0)
(0.0987457 -2.27073e-09 0)
(0.0987457 -7.34427e-09 0)
(0.0987457 -1.07925e-08 0)
(0.0987457 -1.27954e-08 0)
(0.0987457 -1.38379e-08 0)
(0.0987457 -1.42998e-08 0)
(0.0987457 -1.41184e-08 0)
(0.0987457 -1.27704e-08 0)
(0.0987457 -9.76713e-09 0)
(0.0987457 -5.38271e-09 0)
(0.0987457 -1.01316e-09 0)
(0.0987457 9.73277e-10 0)
(0.0987457 -1.66158e-09 0)
(0.0987457 -9.80303e-09 0)
(0.0987456 -1.93939e-08 0)
(0.0987456 -1.82664e-08 0)
(0.0380097 2.29699e-08 0)
(0.0380098 2.64912e-08 0)
(0.0380098 1.86088e-08 0)
(0.0380098 7.52674e-09 0)
(0.0380099 -6.76448e-10 0)
(0.0380099 -5.37251e-09 0)
(0.0380099 -7.09863e-09 0)
(0.0380099 -7.07512e-09 0)
(0.0380099 -6.95494e-09 0)
(0.0380099 -8.2382e-09 0)
(0.0380099 -1.14055e-08 0)
(0.0380099 -1.54361e-08 0)
(0.0380099 -1.83934e-08 0)
(0.0380099 -1.87038e-08 0)
(0.0380099 -1.59677e-08 0)
(0.0380099 -1.08642e-08 0)
(0.0380099 -4.14212e-09 0)
(0.0380099 2.59305e-09 0)
(0.0380099 8.3321e-09 0)
(0.0380099 1.24232e-08 0)
(0.0380099 1.43115e-08 0)
(0.0380099 1.36933e-08 0)
(0.0380099 1.08076e-08 0)
(0.0380099 6.41277e-09 0)
(0.0380099 1.5283e-09 0)
(0.0380099 -2.75241e-09 0)
(0.0380099 -5.68991e-09 0)
(0.0380099 -6.87751e-09 0)
(0.0380099 -6.13585e-09 0)
(0.0380099 -3.58864e-09 0)
(0.0380099 2.18765e-10 0)
(0.0380099 3.82192e-09 0)
(0.0380099 5.72726e-09 0)
(0.0380099 5.1222e-09 0)
(0.0380099 2.14543e-09 0)
(0.0380099 -1.79967e-09 0)
(0.0380099 -5.08774e-09 0)
(0.0380099 -6.57245e-09 0)
(0.0380099 -6.01826e-09 0)
(0.0380099 -3.80427e-09 0)
(0.0380099 -1.98926e-10 0)
(0.0380099 3.94786e-09 0)
(0.0380099 8.07956e-09 0)
(0.0380099 1.15577e-08 0)
(0.0380099 1.35776e-08 0)
(0.0380099 1.35536e-08 0)
(0.0380099 1.15178e-08 0)
(0.0380099 8.21658e-09 0)
(0.0380099 4.6208e-09 0)
(0.0380099 1.3761e-09 0)
(0.0380099 -1.09776e-09 0)
(0.0380099 -2.8027e-09 0)
(0.0380099 -3.71629e-09 0)
(0.0380099 -3.72e-09 0)
(0.0380099 -2.75939e-09 0)
(0.0380099 -1.27701e-09 0)
(0.0380099 1.32594e-10 0)
(0.0380099 9.16209e-10 0)
(0.0380099 9.10535e-10 0)
(0.0380099 5.39504e-10 0)
(0.0380099 2.18762e-10 0)
(0.0380099 1.97335e-10 0)
(0.0380099 2.8801e-10 0)
(0.0380099 2.7443e-10 0)
(0.0380099 1.34067e-10 0)
(0.0380099 1.58902e-11 0)
(0.0380099 1.66681e-11 0)
(0.0380099 2.55531e-11 0)
(0.0380099 -1.68113e-10 0)
(0.0380099 -7.39583e-10 0)
(0.0380099 -1.54168e-09 0)
(0.0380099 -2.06074e-09 0)
(0.0380099 -1.7615e-09 0)
(0.0380099 -4.53262e-10 0)
(0.0380099 1.64366e-09 0)
(0.0380099 4.15576e-09 0)
(0.0380099 6.6848e-09 0)
(0.0380099 8.92177e-09 0)
(0.0380099 1.05264e-08 0)
(0.0380099 1.11153e-08 0)
(0.0380099 1.03909e-08 0)
(0.0380099 8.35767e-09 0)
(0.0380099 5.39553e-09 0)
(0.0380099 1.99979e-09 0)
(0.0380099 -1.11602e-09 0)
(0.0380099 -3.52184e-09 0)
(0.0380099 -5.15207e-09 0)
(0.0380099 -6.12769e-09 0)
(0.0380099 -6.65647e-09 0)
(0.0380099 -6.9198e-09 0)
(0.0380099 -6.93065e-09 0)
(0.0380099 -6.46163e-09 0)
(0.0380099 -5.25216e-09 0)
(0.0380099 -3.35811e-09 0)
(0.0380099 -1.34085e-09 0)
(0.0380099 -1.69669e-10 0)
(0.0380099 -9.95784e-10 0)
(0.0380099 -4.25543e-09 0)
(0.0380099 -8.00313e-09 0)
(0.0380098 -7.16444e-09 0)
)
;

boundaryField
{
    inlet
    {
        type            zeroGradient;
    }
    outlet
    {
        type            zeroGradient;
    }
    walls
    {
        type            noSlip;
    }
    frontAndBack
    {
        type            empty;
    }
}


// ************************************************************************* //
