/*--------------------------------*- C++ -*----------------------------------*\
| =========                 |                                                 |
| \\      /  F ield         | OpenFOAM: The Open Source CFD Toolbox           |
|  \\    /   O peration     | Version:  2406                                  |
|   \\  /    A nd           | Website:  www.openfoam.com                      |
|    \\/     M anipulation  |                                                 |
\*---------------------------------------------------------------------------*/
FoamFile
{
    version     2.0;
    format      ascii;
    arch        "LSB;label=32;scalar=64";
    class       volScalarField;
    location    "0.15";
    object      alpha.glycerin;
}
// * * * * * * * * * * * * * * * * * * * * * * * * * * * * * * * * * * * * * //

dimensions      [0 0 0 0 0 0 0];

internalField   nonuniform List<scalar> 
6250
(
-9.87687e-320
-9.9238e-320
-9.73112e-320
-9.49495e-320
-9.95098e-320
-1.02988e-319
-1.01501e-319
-9.71333e-320
-9.72173e-320
-9.65503e-320
-9.52756e-320
-9.69011e-320
-1.00918e-319
-9.6995e-320
-9.66886e-320
-9.68863e-320
-9.67776e-320
-1.02568e-319
-1.01965e-319
-9.97272e-320
-9.74643e-320
-1.0322e-319
-1.01313e-319
-1.02983e-319
-9.86699e-320
-1.02395e-319
-9.99198e-320
-1.02089e-319
-9.73062e-320
-1.0445e-319
-9.91244e-320
-1.00947e-319
-9.7074e-320
-1.04129e-319
-1.00824e-319
-9.96777e-320
-9.95839e-320
-9.69406e-320
-9.82548e-320
-1.04806e-319
-1.03675e-319
-1.04732e-319
-1.04327e-319
-1.00192e-319
-9.74199e-320
-1.04722e-319
-1.03971e-319
-1.03028e-319
-9.78398e-320
-1.05355e-319
-9.7741e-320
-9.84031e-320
-9.75582e-320
-9.88675e-320
-1.05132e-319
-9.83981e-320
-1.00686e-319
-9.98111e-320
-1.04772e-319
-9.88181e-320
-9.87934e-320
-1.05359e-319
-1.05177e-319
-1.06471e-319
-1.06555e-319
-1.06456e-319
-9.98704e-320
-1.0487e-319
-1.06797e-319
-1.02193e-319
-1.0117e-319
-1.04949e-319
-1.00276e-319
-1.02074e-319
-1.01797e-319
-1.06837e-319
-1.01219e-319
-1.00676e-319
-9.96382e-320
-1.02963e-319
-1.01585e-319
-1.00962e-319
-9.94307e-320
-1.02207e-319
-1.02123e-319
-1.01358e-319
-1.03462e-319
-1.04786e-319
-1.05611e-319
-1.00977e-319
-1.07761e-319
-1.06748e-319
-1.06758e-319
-1.07217e-319
-1.00997e-319
-1.01358e-319
-1.08032e-319
-1.03176e-319
-1.07943e-319
-1.08092e-319
-1.06491e-319
-1.05488e-319
-1.04638e-319
-1.03472e-319
-1.07454e-319
-1.02479e-319
-1.02291e-319
-1.06358e-319
-1.05597e-319
-1.02489e-319
-1.03018e-319
-1.02627e-319
-1.05908e-319
-1.02771e-319
-1.09851e-319
-1.0494e-319
-1.0619e-319
-1.05542e-319
-1.03581e-319
-1.11516e-319
-1.12938e-319
-1.13857e-319
-1.14114e-319
-9.40108e-320
-1.21051e-319
-1.20987e-319
-1.18694e-319
-1.18418e-319
-1.1866e-319
-1.21026e-319
-8.14834e-308
-1.14628e-296
-1.16506e-285
-1.13111e-274
-1.6267e-261
-5.34913e-246
-2.84666e-234
-7.1041e-223
-8.11814e-213
-7.05727e-203
-6.24438e-193
-4.61585e-183
-3.79073e-171
-1.21693e-155
-8.0189e-145
-9.34797e-135
-1.02547e-125
-5.81806e-117
-1.62485e-108
-2.71693e-94
-2.29528e-85
-1.14493e-76
-1.52074e-69
-8.35626e-63
-1.69828e-56
-1.04353e-50
-2.14421e-45
-1.32301e-40
-3.84612e-29
-2.06873e-24
-1.04711e-21
4.13085e-11
0.713541
0.999994
0.999994
0.999994
0.999998
0.999993
0.999992
0.999992
0.999996
1
1
0.999995
0.999634
0.999607
0.999739
1
0.999971
0.99698
0.996732
0.99695
0.999613
0.999988
0.999987
0.999986
0.997101
0.998272
0.999848
0.999907
0.999907
0.999907
0.999907
0.999165
0.99807
0.998738
0.999859
0.998998
0.99892
0.998968
0.999359
0.999325
0.999325
0.998038
0.990299
0.984983
0.989108
0.993592
0.998152
0.999254
0.999254
0.998865
0.997095
0.997904
0.999778
0.999838
0.999742
0.999674
0.999746
0.999758
0.999758
0.999758
0.999758
0.999659
0.998743
0.998308
0.999907
0.999996
0.999996
0.999996
0.999937
0.999722
0.999657
0.999818
0.999991
0.999996
0.999995
0.999995
0.999988
0.999984
0.999997
0.999998
0.999836
0.999828
1
1
1
1
1
1
-9.48161e-320
-9.46679e-320
-9.82252e-320
-1.01002e-319
-9.60365e-320
-9.78299e-320
-9.54683e-320
-1.02039e-319
-9.91293e-320
-1.02316e-319
-9.57549e-320
-9.91145e-320
-9.51373e-320
-9.59327e-320
-9.48804e-320
-1.00705e-319
-9.71778e-320
-9.54782e-320
-9.82499e-320
-9.87291e-320
-1.00192e-319
-9.86204e-320
-9.59031e-320
-9.83339e-320
-9.57203e-320
-9.94505e-320
-9.70197e-320
-9.61353e-320
-1.00943e-319
-9.71481e-320
-9.8245e-320
-9.64021e-320
-9.89119e-320
-1.02227e-319
-9.4663e-320
-9.52954e-320
-1.0029e-319
-9.51472e-320
-1.02059e-319
-9.51916e-320
-9.48952e-320
-9.65256e-320
-1.01906e-319
-9.83487e-320
-1.00004e-319
-9.50632e-320
-9.59574e-320
-1.02232e-319
-9.44456e-320
-9.98951e-320
-9.58932e-320
-9.52904e-320
-9.65503e-320
-9.84228e-320
-1.01195e-319
-9.97272e-320
-1.01106e-319
-9.98754e-320
-1.00602e-319
-9.65898e-320
-1.01931e-319
-9.58932e-320
-1.01318e-319
-9.43171e-320
-1.00162e-319
-9.66096e-320
-9.61007e-320
-1.00261e-319
-9.55474e-320
-1.00809e-319
-9.4243e-320
-1.01728e-319
-9.87538e-320
-9.54485e-320
-9.55029e-320
-1.02489e-319
-9.63724e-320
-1.01125e-319
-9.66244e-320
-9.76323e-320
-9.42331e-320
-9.98408e-320
-1.00117e-319
-9.63576e-320
-1.0241e-319
-1.00542e-319
-9.75631e-320
-9.5157e-320
-9.71333e-320
-9.56709e-320
-9.76323e-320
-9.74149e-320
-9.90206e-320
-9.43122e-320
-9.58784e-320
-9.73853e-320
-9.59475e-320
-9.91886e-320
-9.92924e-320
-9.99396e-320
-9.63379e-320
-1.0156e-319
-9.72766e-320
-1.00434e-319
-1.00745e-319
-9.63724e-320
-9.69159e-320
-9.75137e-320
-9.48507e-320
-9.92084e-320
-1.00671e-319
-9.54535e-320
-9.67628e-320
-9.92528e-320
-9.61699e-320
-9.70987e-320
-9.90503e-320
-9.63922e-320
-9.94999e-320
-1.03467e-319
-9.70444e-320
-1.0241e-319
-1.04767e-319
-9.95394e-320
-1.11955e-319
-1.11362e-319
-1.11896e-319
-1.11644e-319
-1.10384e-319
-1.17148e-319
-2.11044e-309
-3.23231e-298
-3.58668e-287
-3.8101e-276
-6.82042e-263
-2.17425e-247
-1.2747e-235
-3.51049e-224
-4.43363e-214
-4.26535e-204
-4.18121e-194
-3.42734e-184
-3.36675e-172
-1.11313e-156
-8.14518e-146
-1.05446e-135
-1.28433e-126
-8.08701e-118
-2.51267e-109
-4.64097e-95
-4.3393e-86
-2.39229e-77
-3.50643e-70
-2.1227e-63
-4.74533e-57
-3.20319e-51
-7.2253e-46
-4.89456e-41
-1.56513e-29
-9.29534e-25
-7.36141e-22
4.37132e-19
0.07843
0.156831
0.629403
0.999773
1
1
1
1
1
0.999921
0.999866
0.999896
0.999974
0.999998
1
1
1
1
0.999989
0.999988
0.999988
0.999988
0.999988
0.999958
0.997112
0.997223
0.998781
0.999854
0.999907
0.999907
0.968672
0.931964
0.9833
0.999907
0.999907
0.999907
0.999907
0.999907
0.999907
0.982272
0.953736
0.953735
0.964658
0.984875
0.985188
0.925393
0.894722
0.894718
0.962734
0.980041
0.971319
0.979503
0.999414
0.999838
0.999838
0.999838
0.999838
0.990114
0.947815
0.94767
0.985499
0.999659
0.998972
0.831622
0.728564
0.840862
0.966485
0.994983
0.995644
0.995179
0.995586
0.997303
0.999518
0.999996
0.999996
0.999895
0.997577
0.997275
0.999481
0.999998
0.980416
0.968623
0.972531
0.996602
0.999999
0.999095
0.998746
0.999876
-9.64762e-320
-9.55622e-320
-9.50236e-320
-9.49594e-320
-9.67578e-320
-9.91442e-320
-9.88082e-320
-9.80127e-320
-1.00646e-319
-9.52015e-320
-9.95938e-320
-9.82993e-320
-9.5745e-320
-9.46037e-320
-9.83635e-320
-1.00458e-319
-9.53053e-320
-9.85068e-320
-9.53201e-320
-9.91145e-320
-9.67331e-320
-9.53893e-320
-9.61551e-320
-9.49248e-320
-9.68566e-320
-1.01461e-319
-9.60414e-320
-9.51027e-320
-1.01283e-319
-9.95839e-320
-9.60711e-320
-1.01708e-319
-9.43517e-320
-9.58636e-320
-9.42677e-320
-9.46383e-320
-1.00903e-319
-1.01832e-319
-9.59723e-320
-1.01773e-319
-9.56857e-320
-9.59871e-320
-9.5829e-320
-9.57499e-320
-9.53695e-320
-1.02529e-319
-9.82746e-320
-9.42183e-320
-9.59821e-320
-1.00552e-319
-9.66936e-320
-9.43171e-320
-9.44505e-320
-9.64219e-320
-1.0201e-319
-9.85216e-320
-9.64614e-320
-1.00093e-319
-1.00389e-319
-1.01199e-319
-1.01674e-319
-9.68566e-320
-9.94653e-320
-9.6412e-320
-1.00009e-319
-9.94554e-320
-9.98457e-320
-1.00093e-319
-9.99594e-320
-9.52213e-320
-1.01674e-319
-9.48408e-320
-9.61798e-320
-9.87637e-320
-9.58537e-320
-9.61995e-320
-1.00982e-319
-9.42677e-320
-9.94307e-320
-9.60414e-320
-9.97222e-320
-9.5325e-320
-9.699e-320
-9.68863e-320
-9.97568e-320
-1.01022e-319
-9.72815e-320
-9.76916e-320
-9.75829e-320
-9.5908e-320
-9.99692e-320
-9.43912e-320
-9.63477e-320
-9.40454e-320
-9.6575e-320
-1.01936e-319
-9.65355e-320
-1.00483e-319
-9.95987e-320
-9.87489e-320
-9.39071e-320
-9.68566e-320
-9.90108e-320
-9.71185e-320
-9.78151e-320
-1.007e-319
-9.9742e-320
-9.40306e-320
-9.65849e-320
-9.71037e-320
-9.48952e-320
-9.82845e-320
-9.44209e-320
-9.63675e-320
-9.73112e-320
-1.0117e-319
-9.67973e-320
-1.0279e-319
-1.01076e-319
-9.49298e-320
-1.02988e-319
-9.71284e-320
-1.06866e-319
-9.95888e-320
-1.116e-319
-1.14613e-319
-1.06728e-319
-1.14767e-319
-1.11955e-319
-1.13902e-319
-8.71536e-311
-1.46364e-299
-1.78266e-288
-2.08194e-277
-4.52463e-264
-1.43418e-248
-9.24362e-237
-2.79789e-225
-3.88184e-215
-4.09943e-205
-4.40686e-195
-3.95622e-185
-4.54188e-173
-1.53403e-157
-1.22292e-146
-1.72087e-136
-2.27258e-127
-1.54724e-118
-5.17036e-110
-1.0286e-95
-1.02998e-86
-6.05973e-78
-9.44349e-71
-6.05518e-64
-1.42816e-57
-1.01301e-51
-2.39107e-46
-1.68737e-41
-5.59362e-30
-3.42636e-25
-6.23331e-22
0.000143429
4.35413e-09
3.28149e-10
0.0227048
0.0728498
0.225797
0.407564
0.256015
0.231758
0.600085
0.991746
0.995451
0.978204
0.981938
0.998894
1
0.996732
0.980397
0.972308
0.986428
0.995506
0.988789
0.981895
0.982541
0.998205
0.997152
0.975783
0.971681
0.994674
0.999907
0.981888
0.896824
0.896192
0.95636
0.999907
0.834723
0.377988
0.373313
0.569301
0.984047
0.999907
0.999907
0.999907
0.976406
0.424689
0.336767
0.40355
0.900466
0.985758
0.985758
0.985758
0.919119
0.261527
0.0608922
0.254182
0.80034
0.874878
0.711117
0.503207
0.528155
0.675862
0.876736
0.998716
0.998759
0.96825
0.541804
0.227279
0.220819
0.413792
0.521738
0.479987
0.41948
0.433238
0.544213
0.716017
0.826406
0.883314
0.930387
0.970931
0.995011
0.946962
0.91806
0.972875
0.97288
0.908132
0.90616
0.947536
0.999491
0.99743
-9.72519e-320
-9.71778e-320
-9.84623e-320
-1.00893e-319
-1.01417e-319
-9.57203e-320
-1.01387e-319
-1.02361e-319
-9.87785e-320
-1.01511e-319
-9.60612e-320
-9.49742e-320
-9.6911e-320
-9.88872e-320
-9.55869e-320
-1.02163e-319
-9.60315e-320
-9.97074e-320
-9.66689e-320
-9.88872e-320
-9.58142e-320
-9.98013e-320
-9.49001e-320
-9.98655e-320
-9.81807e-320
-9.6407e-320
-9.51126e-320
-9.81214e-320
-9.69456e-320
-9.83932e-320
-9.65701e-320
-9.88675e-320
-1.01338e-319
-1.01595e-319
-1.00903e-319
-9.88428e-320
-9.45444e-320
-9.658e-320
-1.01412e-319
-9.89959e-320
-9.574e-320
-9.52559e-320
-9.5246e-320
-9.90305e-320
-1.00355e-319
-1.02375e-319
-1.02128e-319
-9.49347e-320
-9.79979e-320
-9.60612e-320
-1.02262e-319
-9.63477e-320
-9.41837e-320
-9.49495e-320
-9.70197e-320
-1.00523e-319
-9.52015e-320
-9.8744e-320
-1.01239e-319
-9.84475e-320
-1.02242e-319
-1.02356e-319
-9.87785e-320
-9.85809e-320
-9.63724e-320
-9.85315e-320
-9.94702e-320
-1.00928e-319
-9.54732e-320
-1.02193e-319
-9.6328e-320
-9.95789e-320
-9.97222e-320
-9.44308e-320
-9.66689e-320
-9.39663e-320
-9.40059e-320
-9.94109e-320
-9.89268e-320
-1.01422e-319
-1.01911e-319
-1.01412e-319
-1.01313e-319
-9.99939e-320
-9.61353e-320
-9.44258e-320
-1.02321e-319
-1.02113e-319
-1.02252e-319
-9.39071e-320
-9.83438e-320
-9.46926e-320
-9.60217e-320
-1.02207e-319
-9.43468e-320
-1.00784e-319
-9.50533e-320
-9.949e-320
-9.60958e-320
-9.74248e-320
-1.02296e-319
-9.76076e-320
-9.8744e-320
-9.93368e-320
-1.00409e-319
-9.4243e-320
-9.61995e-320
-9.56264e-320
-9.71827e-320
-1.0035e-319
-9.56709e-320
-9.64564e-320
-9.61699e-320
-9.99445e-320
-1.01432e-319
-9.68912e-320
-1.01511e-319
-9.94109e-320
-9.62341e-320
-9.52262e-320
-1.00231e-319
-9.824e-320
-1.06229e-319
-1.00177e-319
-1.10458e-319
-1.12395e-319
-1.06743e-319
-1.0822e-319
-1.08798e-319
-1.13467e-319
-4.64944e-312
-8.56643e-301
-1.14457e-289
-1.46509e-278
-3.65269e-265
-1.21155e-249
-8.53995e-238
-2.82297e-226
-4.27014e-216
-4.90704e-206
-5.72749e-196
-5.56913e-186
-7.56336e-174
-2.5124e-158
-2.15034e-147
-3.23769e-137
-4.55846e-128
-3.2962e-119
-1.16316e-110
-2.442e-96
-2.5649e-87
-1.57579e-78
-2.55255e-71
-1.6931e-64
-4.11024e-58
-2.98491e-52
-7.17191e-47
-5.11908e-42
-1.70336e-30
-1.03821e-25
-5.48714e-23
1.48119e-05
2.12054e-06
2.16271e-13
4.14287e-13
2.10758e-13
4.10037e-13
1.82762e-05
7.88562e-11
8.0605e-11
0.0193411
0.0840157
0.156813
0.141765
0.049973
1.93171e-10
0.270224
0.877848
0.72616
0.125529
0.00852516
0.00853137
0.42116
0.966282
0.990729
0.998212
0.997868
0.983816
0.95962
0.960435
0.98694
0.999518
0.999846
0.999846
0.911783
0.863888
0.863816
0.921033
0.972479
0.980432
0.594023
0.122481
0.119141
0.119134
0.119139
0.483453
0.608383
0.608457
0.403214
0.0656377
0.0187286
0.176361
0.840374
0.637747
0.073647
0.0293413
0.0378968
0.0580231
0.0481902
0.0210541
0.0161991
0.0247423
0.0326943
0.0142064
0.153741
0.717834
0.745806
0.498678
0.0199822
2.79246e-12
2.79246e-12
1.91257e-12
6.44921e-07
2.37964e-10
3.61275e-10
4.61204e-10
5.88179e-10
7.73412e-10
8.15039e-10
0.0947445
0.376481
0.653501
0.892941
0.97288
0.97148
0.915428
0.917417
0.982697
0.999492
0.996856
-9.61551e-320
-1.00923e-319
-1.00073e-319
-9.88329e-320
-9.82598e-320
-9.60266e-320
-1.02425e-319
-9.86946e-320
-1.0242e-319
-1.00453e-319
-1.01264e-319
-9.90453e-320
-9.90799e-320
-9.54584e-320
-9.70345e-320
-9.57697e-320
-1.00997e-319
-9.60068e-320
-1.02079e-319
-1.02202e-319
-9.55078e-320
-9.53003e-320
-9.90355e-320
-9.60464e-320
-9.84772e-320
-9.53695e-320
-9.9075e-320
-1.0115e-319
-9.59772e-320
-1.00211e-319
-9.49841e-320
-1.02425e-319
-9.49446e-320
-9.5577e-320
-1.0244e-319
-1.00483e-319
-9.50681e-320
-1.01575e-319
-9.55029e-320
-9.59179e-320
-1.01778e-319
-9.55968e-320
-9.63527e-320
-9.66886e-320
-9.42183e-320
-9.87835e-320
-9.4658e-320
-9.59475e-320
-9.92133e-320
-9.93171e-320
-9.59525e-320
-9.41887e-320
-1.01911e-319
-9.60958e-320
-9.95345e-320
-9.84179e-320
-9.68616e-320
-9.41294e-320
-9.99347e-320
-1.00137e-319
-9.63428e-320
-1.02212e-319
-1.01214e-319
-9.55325e-320
-1.01926e-319
-9.87094e-320
-9.98655e-320
-9.55523e-320
-1.01363e-319
-1.01348e-319
-9.57203e-320
-9.41294e-320
-1.02207e-319
-9.44308e-320
-1.02034e-319
-9.40701e-320
-1.00142e-319
-9.71778e-320
-9.5656e-320
-9.83092e-320
-9.57351e-320
-9.68369e-320
-9.58537e-320
-1.02118e-319
-9.6822e-320
-9.62539e-320
-9.50187e-320
-9.45197e-320
-9.73309e-320
-9.92627e-320
-9.89861e-320
-9.59278e-320
-1.00379e-319
-9.94011e-320
-9.64021e-320
-1.0035e-319
-9.55474e-320
-9.95789e-320
-9.87785e-320
-9.9159e-320
-9.72469e-320
-9.76125e-320
-9.87736e-320
-9.60809e-320
-9.55572e-320
-1.01101e-319
-9.39861e-320
-9.98902e-320
-9.49051e-320
-9.80572e-320
-9.80226e-320
-1.01185e-319
-9.90602e-320
-1.00281e-319
-9.42233e-320
-9.58833e-320
-9.52954e-320
-9.79337e-320
-9.63033e-320
-9.67776e-320
-1.03032e-319
-9.62983e-320
-1.0321e-319
-9.60958e-320
-1.10443e-319
-1.07148e-319
-1.10893e-319
-1.10513e-319
-1.13378e-319
-1.09169e-319
-2.86935e-313
-5.78665e-302
-8.45483e-291
-1.18132e-279
-3.63901e-266
-1.16068e-250
-8.89067e-239
-3.18645e-227
-5.21323e-217
-6.4622e-207
-8.11252e-197
-8.45776e-187
-1.31592e-174
-4.34137e-159
-3.94175e-148
-6.27138e-138
-9.29231e-129
-7.04151e-120
-2.5857e-111
-5.65411e-97
-6.1404e-88
-3.8821e-79
-6.43939e-72
-4.35129e-65
-1.07029e-58
-7.82914e-53
-1.8826e-47
-1.335e-42
-4.37525e-31
-2.59831e-26
1.88612e-16
2.51462e-10
5.63372e-08
4.15436e-09
2.16271e-13
6.43266e-13
1.33173e-12
7.04622e-13
1.70686e-11
2.29509e-11
1.0839e-11
1.10176e-11
4.27906e-11
1.40288e-10
1.18654e-10
1.77781e-10
0.00464783
0.0117098
0.00914218
0.00623931
0.00851897
0.0092747
0.0066552
0.000324559
2.9941e-11
3.30182e-07
0.0728161
0.423546
0.363367
0.0729582
5.44335e-10
5.49086e-10
0.288827
0.92789
0.989081
0.989075
0.982847
0.974717
0.974897
0.980408
0.980432
0.886679
0.835892
0.866057
0.873387
0.873427
0.428201
0.0210046
0.01884
0.0188314
0.0186996
0.0186995
0.318179
0.892338
0.906564
0.830972
0.24106
0.00486088
0.00484013
0.00456243
0.00276758
6.0976e-05
1.12466e-10
2.24502e-10
1.72599e-10
0.0171984
0.0608288
0.0635802
0.0199164
8.15272e-11
8.90937e-12
6.94735e-12
1.03078e-10
2.13642e-10
8.8544e-05
0.000778397
0.00179337
0.00292247
0.00334825
0.0029027
0.00047396
0.000143172
0.00014445
0.0618699
0.60247
0.701313
0.326241
0.318598
0.773344
0.996856
-9.57549e-320
-1.01654e-319
-1.01022e-319
-9.58636e-320
-9.70938e-320
-9.94505e-320
-1.02588e-319
-9.87193e-320
-1.00384e-319
-1.0073e-319
-9.83586e-320
-9.6491e-320
-9.60315e-320
-9.61649e-320
-9.48507e-320
-9.9821e-320
-1.01946e-319
-9.89712e-320
-9.90305e-320
-1.00281e-319
-9.79139e-320
-9.86649e-320
-9.58883e-320
-1.0077e-319
-9.59377e-320
-9.87687e-320
-9.43221e-320
-9.66689e-320
-9.47964e-320
-9.52707e-320
-1.00908e-319
-9.90898e-320
-1.00794e-319
-9.99841e-320
-1.02034e-319
-1.02346e-319
-1.01358e-319
-9.6412e-320
-1.01614e-319
-9.60365e-320
-9.66541e-320
-9.46136e-320
-9.51966e-320
-1.01901e-319
-9.8907e-320
-9.52707e-320
-9.59821e-320
-9.49594e-320
-1.00537e-319
-1.00562e-319
-9.42331e-320
-1.02257e-319
-1.01733e-319
-9.61056e-320
-1.00458e-319
-1.00824e-319
-1.01466e-319
-9.93319e-320
-9.69703e-320
-9.70147e-320
-9.88774e-320
-9.66145e-320
-1.00305e-319
-9.62143e-320
-9.91837e-320
-9.6076e-320
-1.01768e-319
-9.8408e-320
-1.00666e-319
-9.48804e-320
-9.70987e-320
-9.86402e-320
-9.70641e-320
-9.63379e-320
-1.01264e-319
-9.54288e-320
-9.58883e-320
-1.00804e-319
-1.01298e-319
-1.00745e-319
-9.3996e-320
-9.57845e-320
-9.7158e-320
-9.70197e-320
-9.94999e-320
-9.39762e-320
-9.4742e-320
-9.87094e-320
-9.49347e-320
-9.63724e-320
-9.63379e-320
-9.69357e-320
-9.48952e-320
-9.85216e-320
-9.45493e-320
-1.01036e-319
-9.43369e-320
-9.89268e-320
-9.8324e-320
-9.53744e-320
-9.71086e-320
-9.85809e-320
-9.52855e-320
-9.99643e-320
-9.68813e-320
-9.88576e-320
-9.45049e-320
-9.8492e-320
-9.7074e-320
-9.97173e-320
-9.42331e-320
-9.93467e-320
-9.49792e-320
-9.92874e-320
-9.73458e-320
-9.79337e-320
-9.76224e-320
-9.7993e-320
-9.5577e-320
-1.01768e-319
-9.47569e-320
-9.75384e-320
-1.04277e-319
-9.92183e-320
-1.09633e-319
-1.07509e-319
-1.0736e-319
-1.14223e-319
-1.07474e-319
-1.06471e-319
-1.89481e-314
-4.16867e-303
-6.63426e-292
-1.00719e-280
-3.62468e-267
-1.16328e-251
-9.62279e-240
-3.71436e-228
-6.52564e-218
-8.65907e-208
-1.15976e-197
-1.2855e-187
-2.27273e-175
-7.37429e-160
-7.03636e-149
-1.17162e-138
-1.80909e-129
-1.42237e-120
-5.39916e-112
-1.21292e-97
-1.34797e-88
-8.67865e-80
-1.45863e-72
-9.93424e-66
-2.449e-59
-1.7845e-53
-4.2456e-48
-2.95608e-43
-9.42671e-32
-5.38336e-27
1.49893e-16
1.55699e-16
1.61625e-16
4.84385e-11
2.34354e-12
5.47277e-13
1.01697e-12
7.15624e-13
2.64116e-12
5.30814e-12
1.07223e-11
1.25713e-11
2.69365e-11
3.27744e-11
7.7069e-11
1.57952e-10
9.05875e-11
9.21672e-11
2.11415e-10
7.90558e-11
7.97594e-11
7.71468e-11
7.16197e-11
2.99416e-11
2.99416e-11
2.99407e-11
2.99408e-11
2.99407e-11
1.2778e-06
6.81379e-10
5.45002e-10
7.61657e-05
0.0124855
0.0218004
0.0150187
1.57183e-05
0.24798
0.683277
0.413857
0.0133897
0.105056
0.739096
0.902379
0.902339
0.716488
0.0699796
0.179802
0.592199
0.596874
0.423281
0.0187006
0.283097
0.876828
0.906564
0.906564
0.848668
0.867109
0.904549
0.904539
0.904549
0.901243
0.315521
1.12697e-10
1.11668e-10
1.72579e-10
1.14836e-10
1.38525e-10
0.000119808
0.00378172
0.0031979
0.00011643
7.96159e-08
3.9167e-10
8.0362e-11
4.6582e-11
4.61643e-11
4.82513e-11
2.38643e-10
3.09971e-09
5.92139e-10
0.0274707
0.0332516
0.0248527
0.00448703
0.00861136
0.0212014
0.00951461
0.00950257
0.237343
0.994752
-9.89959e-320
-9.68566e-320
-1.00068e-319
-9.69159e-320
-9.61699e-320
-9.83734e-320
-1.0034e-319
-9.66639e-320
-9.5493e-320
-1.00048e-319
-1.01941e-319
-1.01244e-319
-1.00592e-319
-1.02711e-319
-9.8828e-320
-9.63033e-320
-1.00276e-319
-1.01199e-319
-9.87687e-320
-9.55622e-320
-1.00068e-319
-9.44406e-320
-9.70296e-320
-9.61649e-320
-9.78744e-320
-9.79189e-320
-9.88082e-320
-1.00004e-319
-9.89515e-320
-9.52904e-320
-1.00947e-319
-9.9658e-320
-9.8492e-320
-1.01377e-319
-9.91194e-320
-9.53151e-320
-1.00592e-319
-9.42233e-320
-9.56906e-320
-9.89416e-320
-9.66343e-320
-9.60908e-320
-1.02578e-319
-9.6906e-320
-9.80374e-320
-9.48359e-320
-9.66541e-320
-9.41491e-320
-9.54732e-320
-9.99149e-320
-9.59377e-320
-1.00676e-319
-9.66195e-320
-9.49693e-320
-9.53102e-320
-1.01397e-319
-1.01259e-319
-9.50385e-320
-9.44703e-320
-9.69554e-320
-9.51768e-320
-9.54881e-320
-1.00814e-319
-1.01881e-319
-9.54881e-320
-9.85859e-320
-9.88625e-320
-1.01111e-319
-9.87785e-320
-9.94505e-320
-1.00691e-319
-9.5241e-320
-9.51966e-320
-9.93764e-320
-9.61353e-320
-9.5824e-320
-9.52707e-320
-9.99742e-320
-9.5409e-320
-1.00532e-319
-9.89268e-320
-1.01249e-319
-9.96728e-320
-1.01684e-319
-9.45098e-320
-9.65503e-320
-9.5409e-320
-9.59031e-320
-9.51916e-320
-9.96432e-320
-1.00794e-319
-9.51175e-320
-1.01244e-319
-9.81807e-320
-9.4742e-320
-1.0117e-319
-9.40602e-320
-9.66689e-320
-9.54782e-320
-9.78349e-320
-9.67381e-320
-9.91244e-320
-9.90058e-320
-9.69801e-320
-9.69011e-320
-1.02202e-319
-9.86402e-320
-9.94159e-320
-9.408e-320
-9.71333e-320
-1.01802e-319
-9.67924e-320
-9.72124e-320
-9.44802e-320
-9.48902e-320
-9.8991e-320
-9.67331e-320
-9.93121e-320
-9.66541e-320
-1.01264e-319
-9.42875e-320
-9.86254e-320
-1.03102e-319
-9.70444e-320
-1.07948e-319
-1.06249e-319
-1.07321e-319
-1.09544e-319
-1.07963e-319
-1.12854e-319
-1.25968e-315
-3.01195e-304
-5.19937e-293
-8.55084e-282
-3.4528e-268
-1.14742e-252
-1.01933e-240
-4.21269e-229
-7.89898e-219
-1.11486e-208
-1.58262e-198
-1.85223e-188
-3.58994e-176
-1.17103e-160
-1.16584e-149
-2.01691e-139
-3.22168e-130
-2.60874e-121
-1.01044e-112
-2.32742e-98
-2.62692e-89
-1.70925e-80
-2.8884e-73
-1.9673e-66
-4.82225e-60
-3.47208e-54
-8.106e-49
-5.49468e-44
-1.68996e-32
-9.19266e-28
7.25133e-17
1.72334e-16
8.38619e-15
1.96904e-14
1.37349e-13
2.15535e-13
4.80338e-13
6.20843e-13
1.43525e-12
2.05061e-12
5.09502e-12
6.82264e-12
1.51957e-11
1.95362e-11
3.56889e-11
5.40344e-11
8.90003e-11
1.03883e-10
1.33069e-10
2.23181e-10
6.06796e-10
7.72984e-10
7.5787e-10
2.59654e-10
4.48662e-11
2.19786e-08
3.47043e-08
3.39396e-08
3.63094e-09
6.82067e-10
9.27016e-09
3.26255e-06
1.49419e-10
1.00262e-10
5.14272e-10
1.95259e-08
1.82854e-08
0.00116868
0.0020691
0.000594378
0.00104486
0.039379
0.0665024
0.0615712
0.0424423
0.011463
5.74226e-10
1.89407e-10
0.000739152
0.110945
0.153345
0.142287
0.0264012
0.158508
0.819021
0.78261
0.188743
0.0162732
0.0162281
0.0468782
0.0750652
0.0579417
0.00540781
1.11903e-10
1.3594e-10
1.14729e-10
1.27259e-10
8.06728e-11
4.17987e-10
8.30184e-09
0.0004877
0.00066751
0.000667087
0.000173692
1.45053e-07
1.29717e-10
3.09109e-10
2.43121e-08
2.77486e-08
3.7994e-09
6.86558e-10
0.000416587
0.000898323
5.01105e-05
5.91236e-08
0.0361684
0.0461291
0.0279329
0.0068031
0.576563
-9.56659e-320
-9.92084e-320
-1.00513e-319
-9.67134e-320
-9.66244e-320
-9.64614e-320
-9.72766e-320
-9.60315e-320
-9.57302e-320
-1.00083e-319
-9.61205e-320
-1.01066e-319
-1.01412e-319
-9.43023e-320
-9.43073e-320
-1.01402e-319
-1.00878e-319
-9.68764e-320
-1.01096e-319
-9.85661e-320
-1.00972e-319
-9.69307e-320
-9.83784e-320
-9.89366e-320
-9.93665e-320
-9.48112e-320
-1.00542e-319
-9.52904e-320
-9.95048e-320
-9.5992e-320
-9.62292e-320
-1.0155e-319
-9.57153e-320
-9.70543e-320
-9.88131e-320
-9.92973e-320
-9.59525e-320
-9.64614e-320
-9.98556e-320
-1.00241e-319
-9.62341e-320
-9.98655e-320
-1.01348e-319
-1.01896e-319
-9.46136e-320
-9.61304e-320
-9.44851e-320
-9.82203e-320
-9.46778e-320
-9.45543e-320
-9.88625e-320
-9.54238e-320
-1.01259e-319
-9.44999e-320
-9.60562e-320
-1.01911e-319
-9.99841e-320
-9.67282e-320
-9.50582e-320
-9.88922e-320
-9.65404e-320
-9.68813e-320
-1.00187e-319
-1.00488e-319
-9.69505e-320
-9.70592e-320
-9.48359e-320
-9.67628e-320
-9.66541e-320
-9.99396e-320
-1.01679e-319
-1.00804e-319
-9.42134e-320
-9.49397e-320
-9.41146e-320
-9.68517e-320
-9.91244e-320
-9.49001e-320
-9.3996e-320
-1.00908e-319
-9.89317e-320
-1.01298e-319
-1.00839e-319
-9.97024e-320
-1.00765e-319
-9.66442e-320
-9.59821e-320
-9.5246e-320
-9.78695e-320
-9.78991e-320
-9.73655e-320
-9.44159e-320
-9.62292e-320
-9.52262e-320
-9.92874e-320
-9.76669e-320
-9.53201e-320
-9.42677e-320
-9.78546e-320
-9.59426e-320
-9.57302e-320
-9.65207e-320
-9.59278e-320
-9.65552e-320
-9.9905e-320
-9.43468e-320
-9.83536e-320
-9.94258e-320
-9.5162e-320
-9.77114e-320
-9.70592e-320
-9.48952e-320
-9.9821e-320
-9.58636e-320
-9.67677e-320
-9.73359e-320
-9.36205e-320
-1.01377e-319
-1.00276e-319
-9.86155e-320
-9.63477e-320
-9.9406e-320
-1.04441e-319
-9.88477e-320
-1.09282e-319
-1.12835e-319
-1.09105e-319
-1.08546e-319
-1.13027e-319
-1.09179e-319
-7.97529e-317
-2.06423e-305
-3.84968e-294
-6.82343e-283
-3.35112e-269
-1.05524e-253
-1.00198e-241
-4.41228e-230
-8.78602e-220
-1.31234e-209
-1.96439e-199
-2.41502e-189
-5.03246e-177
-1.66498e-161
-1.7203e-150
-3.07557e-140
-5.0548e-131
-4.19269e-122
-1.65921e-113
-3.87074e-99
-4.41229e-90
-2.88496e-81
-4.8735e-74
-3.29999e-67
-7.9947e-61
-5.65299e-55
-1.2869e-49
-8.43762e-45
-2.48629e-33
-1.27935e-28
2.40626e-17
5.95629e-17
2.30524e-15
5.39458e-15
3.24048e-14
5.35016e-14
1.63665e-13
2.27952e-13
5.75057e-13
7.94178e-13
2.01381e-12
2.75277e-12
6.34021e-12
8.4212e-12
1.66726e-11
2.11809e-11
3.74858e-11
4.67589e-11
6.1468e-11
8.75422e-11
1.55056e-10
3.54114e-10
5.8818e-10
5.33538e-10
2.87014e-10
8.40757e-10
7.77369e-09
3.84851e-09
1.7475e-10
1.00863e-07
1.19593e-07
1.67344e-08
4.40179e-10
2.98276e-11
8.55082e-07
2.12378e-06
1.51139e-06
1.38863e-09
1.07117e-09
2.5797e-10
6.4735e-11
6.56606e-11
3.04376e-10
2.8336e-10
2.54003e-10
2.4922e-10
2.54291e-10
1.90564e-10
3.61784e-11
3.61784e-11
0.000655485
0.000895251
3.66607e-05
0.000833713
0.0309156
0.07065
0.0835251
0.0275437
6.1398e-10
9.00292e-10
5.0562e-10
6.07447e-10
0.000102765
7.72926e-05
2.25762e-06
8.39812e-11
8.40573e-11
8.06396e-11
8.20088e-09
8.42104e-09
1.57379e-05
1.75321e-06
9.70819e-05
0.000547559
0.00054855
0.000476586
3.25989e-05
1.46554e-09
5.03906e-10
3.55145e-10
1.27755e-07
3.78555e-08
3.75489e-08
9.79563e-07
5.02445e-08
0.000949976
0.0137911
0.0119522
0.00685311
0.042888
-9.96728e-320
-1.01837e-319
-1.01437e-319
-9.57746e-320
-9.63626e-320
-9.83932e-320
-9.8655e-320
-9.96679e-320
-1.02385e-319
-9.96777e-320
-9.62983e-320
-9.56264e-320
-9.62588e-320
-9.88131e-320
-9.5745e-320
-1.00503e-319
-9.57697e-320
-9.85513e-320
-1.00098e-319
-9.43715e-320
-9.6244e-320
-9.52361e-320
-9.94554e-320
-9.91046e-320
-9.65058e-320
-9.71481e-320
-9.76471e-320
-9.59673e-320
-1.01283e-319
-9.69703e-320
-9.65207e-320
-9.75582e-320
-9.61304e-320
-9.50978e-320
-9.77756e-320
-1.0071e-319
-1.00651e-319
-1.02104e-319
-9.41788e-320
-9.5745e-320
-9.57697e-320
-9.61847e-320
-9.59031e-320
-9.54238e-320
-9.65157e-320
-9.7494e-320
-9.51472e-320
-1.02494e-319
-9.99939e-320
-1.01076e-319
-9.84228e-320
-1.01866e-319
-9.66442e-320
-1.0071e-319
-1.01624e-319
-9.48754e-320
-1.00587e-319
-9.99594e-320
-9.49397e-320
-9.67677e-320
-9.98358e-320
-9.53596e-320
-9.69851e-320
-9.66837e-320
-9.88032e-320
-9.81165e-320
-9.57894e-320
-9.53695e-320
-9.64268e-320
-1.01684e-319
-1.01303e-319
-9.85661e-320
-1.00167e-319
-9.44703e-320
-1.01259e-319
-9.97272e-320
-9.98951e-320
-9.58636e-320
-9.68616e-320
-1.00429e-319
-9.39861e-320
-1.01328e-319
-9.63774e-320
-9.58685e-320
-1.00651e-319
-1.00691e-319
-9.86007e-320
-1.02113e-319
-9.74989e-320
-9.60612e-320
-9.62786e-320
-9.5913e-320
-9.66294e-320
-9.96086e-320
-9.87242e-320
-9.44159e-320
-9.65651e-320
-9.83833e-320
-9.81412e-320
-9.67776e-320
-9.54041e-320
-9.4075e-320
-1.00616e-319
-9.95938e-320
-9.75483e-320
-1.01768e-319
-1.01575e-319
-9.92479e-320
-9.73507e-320
-9.38379e-320
-9.5162e-320
-1.01303e-319
-9.53497e-320
-9.56709e-320
-9.50483e-320
-1.00029e-319
-9.96728e-320
-9.47816e-320
-9.96036e-320
-9.43567e-320
-9.48754e-320
-9.52015e-320
-1.01866e-319
-9.64021e-320
-1.04668e-319
-1.07795e-319
-1.1361e-319
-1.13423e-319
-1.07543e-319
-1.13067e-319
-4.57549e-318
-1.26839e-306
-2.54569e-295
-4.83565e-284
-2.61621e-270
-8.56576e-255
-8.65923e-243
-4.04708e-231
-8.52498e-221
-1.34234e-210
-2.11047e-200
-2.71512e-190
-6.08891e-178
-2.02534e-162
-2.16339e-151
-3.98152e-141
-6.70689e-132
-5.67614e-123
-2.29616e-114
-5.37963e-100
-6.16788e-91
-4.03546e-82
-6.78489e-75
-4.54684e-68
-1.08363e-61
-7.48857e-56
-1.65411e-50
-1.04371e-45
-2.93138e-34
-1.41952e-29
5.53838e-18
1.34617e-17
4.0437e-16
9.05689e-16
6.06637e-15
1.02738e-14
3.87835e-14
5.73192e-14
1.67416e-13
2.36751e-13
6.22948e-13
8.58718e-13
2.00489e-12
2.67112e-12
5.43101e-12
6.83667e-12
1.17438e-11
1.40596e-11
2.13976e-11
2.44347e-11
4.01104e-11
5.65434e-11
1.02381e-10
1.45556e-10
1.39149e-10
8.33826e-11
8.70222e-11
8.78555e-11
1.65314e-10
5.1429e-08
5.86865e-08
1.13078e-08
1.96669e-10
3.06111e-11
1.39241e-10
1.72e-06
2.56109e-06
2.59762e-06
7.12877e-07
2.52029e-10
1.55182e-10
8.24664e-11
1.01162e-10
1.21548e-10
1.37006e-10
1.51938e-10
1.63038e-10
1.86952e-10
2.16892e-10
3.88166e-10
3.41385e-10
1.99718e-09
1.71685e-10
1.88003e-10
1.71685e-10
1.88003e-10
5.19247e-10
6.97798e-10
6.22793e-10
4.02457e-10
2.68061e-10
3.60061e-10
3.13833e-10
4.48785e-07
1.88867e-07
5.91528e-07
7.2087e-07
7.2093e-07
7.21003e-07
7.07927e-07
3.9161e-07
6.17316e-08
5.84694e-09
2.43608e-06
7.0403e-06
1.21521e-05
1.5916e-05
1.6108e-05
1.61063e-05
1.02628e-05
8.97882e-08
3.7762e-08
2.28451e-05
4.73774e-05
4.71835e-05
2.22753e-05
4.45361e-09
4.36867e-09
0.000463604
3.31556e-09
-9.5824e-320
-9.53695e-320
-1.01585e-319
-9.69703e-320
-1.00636e-319
-9.98062e-320
-9.52015e-320
-9.96333e-320
-9.43962e-320
-9.63724e-320
-9.70098e-320
-1.02153e-319
-9.60365e-320
-9.60562e-320
-1.00928e-319
-9.71333e-320
-1.00547e-319
-9.67232e-320
-9.87193e-320
-9.92281e-320
-9.80424e-320
-9.99149e-320
-9.98556e-320
-9.80523e-320
-9.80226e-320
-9.48952e-320
-9.48902e-320
-9.95839e-320
-9.88477e-320
-9.8408e-320
-1.01535e-319
-9.97815e-320
-9.60711e-320
-1.0114e-319
-9.61748e-320
-1.02109e-319
-9.48952e-320
-1.02395e-319
-1.00068e-319
-9.5824e-320
-9.61798e-320
-9.71333e-320
-9.43764e-320
-9.58191e-320
-1.01308e-319
-9.78398e-320
-1.01985e-319
-9.533e-320
-1.02494e-319
-1.01649e-319
-9.43418e-320
-9.8823e-320
-9.72173e-320
-1.01847e-319
-9.49644e-320
-9.53547e-320
-9.55523e-320
-1.01738e-319
-9.58537e-320
-1.00518e-319
-9.5913e-320
-9.50533e-320
-9.86303e-320
-9.83833e-320
-9.62094e-320
-9.88032e-320
-9.57005e-320