/*--------------------------------*- C++ -*----------------------------------*\
| =========                 |                                                 |
| \\      /  F ield         | OpenFOAM: The Open Source CFD Toolbox           |
|  \\    /   O peration     | Version:  2406                                  |
|   \\  /    A nd           | Website:  www.openfoam.com                      |
|    \\/     M anipulation  |                                                 |
\*---------------------------------------------------------------------------*/
FoamFile
{
    version     2.0;
    format      ascii;
    arch        "LSB;label=32;scalar=64";
    class       volScalarField;
    location    "0.15";
    object      alpha.glycerin_0;
}
// * * * * * * * * * * * * * * * * * * * * * * * * * * * * * * * * * * * * * //

dimensions      [0 0 0 0 0 0 0];

internalField   nonuniform List<scalar> 
6250
(
-9.87687e-320
-9.9238e-320
-9.73112e-320
-9.49495e-320
-9.95098e-320
-1.02988e-319
-1.01501e-319
-9.71333e-320
-9.72173e-320
-9.65503e-320
-9.52756e-320
-9.69011e-320
-1.00918e-319
-9.6995e-320
-9.66886e-320
-9.68863e-320
-9.67776e-320
-1.02568e-319
-1.01965e-319
-9.97272e-320
-9.74643e-320
-1.0322e-319
-1.01313e-319
-1.02983e-319
-9.86699e-320
-1.02395e-319
-9.99198e-320
-1.02089e-319
-9.73062e-320
-1.0445e-319
-9.91244e-320
-1.00947e-319
-9.7074e-320
-1.04129e-319
-1.00824e-319
-9.96777e-320
-9.95839e-320
-9.69406e-320
-9.82548e-320
-1.04806e-319
-1.03675e-319
-1.04732e-319
-1.04327e-319
-1.00192e-319
-9.74199e-320
-1.04722e-319
-1.03971e-319
-1.03028e-319
-9.78398e-320
-1.05355e-319
-9.7741e-320
-9.84031e-320
-9.75582e-320
-9.88675e-320
-1.05132e-319
-9.83981e-320
-1.00686e-319
-9.98111e-320
-1.04772e-319
-9.88181e-320
-9.87934e-320
-1.05359e-319
-1.05177e-319
-1.06471e-319
-1.06555e-319
-1.06456e-319
-9.98704e-320
-1.0487e-319
-1.06797e-319
-1.02193e-319
-1.0117e-319
-1.04949e-319
-1.00276e-319
-1.02074e-319
-1.01797e-319
-1.06837e-319
-1.01219e-319
-1.00676e-319
-9.96382e-320
-1.02963e-319
-1.01585e-319
-1.00962e-319
-9.94307e-320
-1.02207e-319
-1.02123e-319
-1.01358e-319
-1.03462e-319
-1.04786e-319
-1.05611e-319
-1.00977e-319
-1.07761e-319
-1.06748e-319
-1.06758e-319
-1.07217e-319
-1.00997e-319
-1.01358e-319
-1.08032e-319
-1.03176e-319
-1.07943e-319
-1.08092e-319
-1.06491e-319
-1.05488e-319
-1.04638e-319
-1.03472e-319
-1.07454e-319
-1.02479e-319
-1.02291e-319
-1.06358e-319
-1.05597e-319
-1.02489e-319
-1.03018e-319
-1.02627e-319
-1.05908e-319
-1.02771e-319
-1.09851e-319
-1.0494e-319
-1.0619e-319
-1.05542e-319
-1.03581e-319
-1.11516e-319
-1.12938e-319
-1.13857e-319
-1.14114e-319
-9.40108e-320
-1.21051e-319
-1.20987e-319
-1.18694e-319
-1.18418e-319
-1.1866e-319
-1.21026e-319
-9.31918e-308
-1.31057e-296
-1.33157e-285
-1.29228e-274
-1.89199e-261
-6.10565e-246
-3.24754e-234
-8.09972e-223
-9.24974e-213
-8.03503e-203
-7.10359e-193
-5.24604e-183
-4.30793e-171
-1.37997e-155
-9.08087e-145
-1.05697e-134
-1.15746e-125
-6.55381e-117
-1.82401e-108
-3.04555e-94
-2.56518e-85
-1.27513e-76
-1.68692e-69
-9.22646e-63
-1.86503e-56
-1.13877e-50
-2.32258e-45
-1.42049e-40
-4.08608e-29
-2.16959e-24
-1.08023e-21
4.19007e-11
0.718827
0.999994
0.999994
0.999994
0.999998
0.999993
0.999992
0.999992
0.999996
1
1
0.999994
0.999634
0.999607
0.999739
1
0.999968
0.996977
0.996732
0.996954
0.999615
0.999988
0.999987
0.999986
0.997096
0.998277
0.999848
0.999907
0.999907
0.999907
0.999907
0.99916
0.998069
0.99874
0.999858
0.998997
0.99892
0.998969
0.999359
0.999325
0.999325
0.998032
0.990281
0.985005
0.989105
0.993592
0.998153
0.999254
0.999254
0.998864
0.997094
0.997905
0.999779
0.999838
0.999742
0.999674
0.999746
0.999758
0.999758
0.999758
0.999758
0.999658
0.998743
0.998307
0.999907
0.999996
0.999996
0.999996
0.999937
0.999722
0.999657
0.999818
0.999991
0.999996
0.999995
0.999995
0.999988
0.999984
0.999997
0.999998
0.999836
0.999828
1
1
1
1
1
1
-9.48161e-320
-9.46679e-320
-9.82252e-320
-1.01002e-319
-9.60365e-320
-9.78299e-320
-9.54683e-320
-1.02039e-319
-9.91293e-320
-1.02316e-319
-9.57549e-320
-9.91145e-320
-9.51373e-320
-9.59327e-320
-9.48804e-320
-1.00705e-319
-9.71778e-320
-9.54782e-320
-9.82499e-320
-9.87291e-320
-1.00192e-319
-9.86204e-320
-9.59031e-320
-9.83339e-320
-9.57203e-320
-9.94505e-320
-9.70197e-320
-9.61353e-320
-1.00943e-319
-9.71481e-320
-9.8245e-320
-9.64021e-320
-9.89119e-320
-1.02227e-319
-9.4663e-320
-9.52954e-320
-1.0029e-319
-9.51472e-320
-1.02059e-319
-9.51916e-320
-9.48952e-320
-9.65256e-320
-1.01906e-319
-9.83487e-320
-1.00004e-319
-9.50632e-320
-9.59574e-320
-1.02232e-319
-9.44456e-320
-9.98951e-320
-9.58932e-320
-9.52904e-320
-9.65503e-320
-9.84228e-320
-1.01195e-319
-9.97272e-320
-1.01106e-319
-9.98754e-320
-1.00602e-319
-9.65898e-320
-1.01931e-319
-9.58932e-320
-1.01318e-319
-9.43171e-320
-1.00162e-319
-9.66096e-320
-9.61007e-320
-1.00261e-319
-9.55474e-320
-1.00809e-319
-9.4243e-320
-1.01728e-319
-9.87538e-320
-9.54485e-320
-9.55029e-320
-1.02489e-319
-9.63724e-320
-1.01125e-319
-9.66244e-320
-9.76323e-320
-9.42331e-320
-9.98408e-320
-1.00117e-319
-9.63576e-320
-1.0241e-319
-1.00542e-319
-9.75631e-320
-9.5157e-320
-9.71333e-320
-9.56709e-320
-9.76323e-320
-9.74149e-320
-9.90206e-320
-9.43122e-320
-9.58784e-320
-9.73853e-320
-9.59475e-320
-9.91886e-320
-9.92924e-320
-9.99396e-320
-9.63379e-320
-1.0156e-319
-9.72766e-320
-1.00434e-319
-1.00745e-319
-9.63724e-320
-9.69159e-320
-9.75137e-320
-9.48507e-320
-9.92084e-320
-1.00671e-319
-9.54535e-320
-9.67628e-320
-9.92528e-320
-9.61699e-320
-9.70987e-320
-9.90503e-320
-9.63922e-320
-9.94999e-320
-1.03467e-319
-9.70444e-320
-1.0241e-319
-1.04767e-319
-9.95394e-320
-1.11955e-319
-1.11362e-319
-1.11896e-319
-1.11644e-319
-1.10384e-319
-1.17148e-319
-2.41502e-309
-3.69766e-298
-4.10167e-287
-4.35567e-276
-7.65093e-263
-2.48332e-247
-1.45515e-235
-4.0051e-224
-5.05501e-214
-4.85958e-204
-4.75979e-194
-3.89795e-184
-3.72716e-172
-1.26315e-156
-9.23043e-146
-1.19312e-135
-1.45068e-126
-9.11632e-118
-2.82478e-109
-5.20614e-95
-4.85313e-86
-2.66632e-77
-3.89249e-70
-2.34549e-63
-5.21514e-57
-3.49814e-51
-7.8322e-46
-5.25916e-41
-1.66408e-29
-9.75592e-25
-7.72046e-22
1.62879e-11
0.0790683
0.157802
0.632762
0.999841
1
1
1
1
1
0.99992
0.999865
0.999896
0.999974
0.999998
1
1
1
1
0.999989
0.999988
0.999988
0.999988
0.999988
0.99995
0.997104
0.997226
0.99879
0.999856
0.999907
0.999907
0.968341
0.932102
0.983454
0.999907
0.999907
0.999907
0.999907
0.999907
0.999907
0.982113
0.953736
0.953735
0.964725
0.984903
0.985161
0.925149
0.894722
0.894718
0.962923
0.979989
0.971292
0.979551
0.999443
0.999838
0.999838
0.999838
0.999838
0.990057
0.947736
0.947658
0.985535
0.999658
0.998898
0.83136
0.728701
0.840996
0.966529
0.994983
0.995645
0.995181
0.995589
0.997306
0.99952
0.999996
0.999996
0.999894
0.997574
0.997275
0.999482
0.999998
0.980393
0.968609
0.972547
0.996612
0.999999
0.999092
0.998746
0.999876
-9.64762e-320
-9.55622e-320
-9.50236e-320
-9.49594e-320
-9.67578e-320
-9.91442e-320
-9.88082e-320
-9.80127e-320
-1.00646e-319
-9.52015e-320
-9.95938e-320
-9.82993e-320
-9.5745e-320
-9.46037e-320
-9.83635e-320
-1.00458e-319
-9.53053e-320
-9.85068e-320
-9.53201e-320
-9.91145e-320
-9.67331e-320
-9.53893e-320
-9.61551e-320
-9.49248e-320
-9.68566e-320
-1.01461e-319
-9.60414e-320
-9.51027e-320
-1.01283e-319
-9.95839e-320
-9.60711e-320
-1.01708e-319
-9.43517e-320
-9.58636e-320
-9.42677e-320
-9.46383e-320
-1.00903e-319
-1.01832e-319
-9.59723e-320
-1.01773e-319
-9.56857e-320
-9.59871e-320
-9.5829e-320
-9.57499e-320
-9.53695e-320
-1.02529e-319
-9.82746e-320
-9.42183e-320
-9.59821e-320
-1.00552e-319
-9.66936e-320
-9.43171e-320
-9.44505e-320
-9.64219e-320
-1.0201e-319
-9.85216e-320
-9.64614e-320
-1.00093e-319
-1.00389e-319
-1.01199e-319
-1.01674e-319
-9.68566e-320
-9.94653e-320
-9.6412e-320
-1.00009e-319
-9.94554e-320
-9.98457e-320
-1.00093e-319
-9.99594e-320
-9.52213e-320
-1.01674e-319
-9.48408e-320
-9.61798e-320
-9.87637e-320
-9.58537e-320
-9.61995e-320
-1.00982e-319
-9.42677e-320
-9.94307e-320
-9.60414e-320
-9.97222e-320
-9.5325e-320
-9.699e-320
-9.68863e-320
-9.97568e-320
-1.01022e-319
-9.72815e-320
-9.76916e-320
-9.75829e-320
-9.5908e-320
-9.99692e-320
-9.43912e-320
-9.63477e-320
-9.40454e-320
-9.6575e-320
-1.01936e-319
-9.65355e-320
-1.00483e-319
-9.95987e-320
-9.87489e-320
-9.39071e-320
-9.68566e-320
-9.90108e-320
-9.71185e-320
-9.78151e-320
-1.007e-319
-9.9742e-320
-9.40306e-320
-9.65849e-320
-9.71037e-320
-9.48952e-320
-9.82845e-320
-9.44209e-320
-9.63675e-320
-9.73112e-320
-1.0117e-319
-9.67973e-320
-1.0279e-319
-1.01076e-319
-9.49298e-320
-1.02988e-319
-9.71284e-320
-1.06866e-319
-9.95888e-320
-1.116e-319
-1.14613e-319
-1.06728e-319
-1.14767e-319
-1.11955e-319
-1.13902e-319
-9.97817e-311
-1.67521e-299
-2.03967e-288
-2.38116e-277
-5.11393e-264
-1.63888e-248
-1.05575e-236
-3.19373e-225
-4.42813e-215
-4.67291e-205
-5.01917e-195
-4.50171e-185
-5.15871e-173
-1.7416e-157
-1.38651e-146
-1.94806e-136
-2.56808e-127
-1.74492e-118
-5.81769e-110
-1.15432e-95
-1.15238e-86
-6.75623e-78
-1.04866e-70
-6.69269e-64
-1.56996e-57
-1.10653e-51
-2.59229e-46
-1.8132e-41
-5.9471e-30
-3.59558e-25
-6.21654e-22
0.000161198
5.05558e-09
2.08002e-10
0.0229551
0.0731095
0.227423
0.406965
0.254613
0.23246
0.603616
0.992246
0.995392
0.978131
0.982088
0.998954
1
0.996669
0.980271
0.972384
0.986618
0.995529
0.988707
0.981933
0.982563
0.998231
0.997052
0.975658
0.971818
0.994767
0.999907
0.981217
0.896702
0.896179
0.956849
0.999907
0.831332
0.377319
0.373172
0.572368
0.984772
0.999907
0.999907
0.999907
0.97512
0.422776
0.33619
0.405172
0.901969
0.985758
0.985758
0.985758
0.917579
0.260105
0.0600381
0.25597
0.80122
0.874294
0.710083
0.502988
0.528248
0.676024
0.876809
0.998681
0.998715
0.967958
0.54097
0.227322
0.221004
0.414093
0.521676
0.479879
0.41951
0.433373
0.544482
0.716246
0.826529
0.883402
0.930463
0.970995
0.995024
0.946837
0.91812
0.972875
0.97288
0.90805
0.906131
0.947649
0.999497
0.997424
-9.72519e-320
-9.71778e-320
-9.84623e-320
-1.00893e-319
-1.01417e-319
-9.57203e-320
-1.01387e-319
-1.02361e-319
-9.87785e-320
-1.01511e-319
-9.60612e-320
-9.49742e-320
-9.6911e-320
-9.88872e-320
-9.55869e-320
-1.02163e-319
-9.60315e-320
-9.97074e-320
-9.66689e-320
-9.88872e-320
-9.58142e-320
-9.98013e-320
-9.49001e-320
-9.98655e-320
-9.81807e-320
-9.6407e-320
-9.51126e-320
-9.81214e-320
-9.69456e-320
-9.83932e-320
-9.65701e-320
-9.88675e-320
-1.01338e-319
-1.01595e-319
-1.00903e-319
-9.88428e-320
-9.45444e-320
-9.658e-320
-1.01412e-319
-9.89959e-320
-9.574e-320
-9.52559e-320
-9.5246e-320
-9.90305e-320
-1.00355e-319
-1.02375e-319
-1.02128e-319
-9.49347e-320
-9.79979e-320
-9.60612e-320
-1.02262e-319
-9.63477e-320
-9.41837e-320
-9.49495e-320
-9.70197e-320
-1.00523e-319
-9.52015e-320
-9.8744e-320
-1.01239e-319
-9.84475e-320
-1.02242e-319
-1.02356e-319
-9.87785e-320
-9.85809e-320
-9.63724e-320
-9.85315e-320
-9.94702e-320
-1.00928e-319
-9.54732e-320
-1.02193e-319
-9.6328e-320
-9.95789e-320
-9.97222e-320
-9.44308e-320
-9.66689e-320
-9.39663e-320
-9.40059e-320
-9.94109e-320
-9.89268e-320
-1.01422e-319
-1.01911e-319
-1.01412e-319
-1.01313e-319
-9.99939e-320
-9.61353e-320
-9.44258e-320
-1.02321e-319
-1.02113e-319
-1.02252e-319
-9.39071e-320
-9.83438e-320
-9.46926e-320
-9.60217e-320
-1.02207e-319
-9.43468e-320
-1.00784e-319
-9.50533e-320
-9.949e-320
-9.60958e-320
-9.74248e-320
-1.02296e-319
-9.76076e-320
-9.8744e-320
-9.93368e-320
-1.00409e-319
-9.4243e-320
-9.61995e-320
-9.56264e-320
-9.71827e-320
-1.0035e-319
-9.56709e-320
-9.64564e-320
-9.61699e-320
-9.99445e-320
-1.01432e-319
-9.68912e-320
-1.01511e-319
-9.94109e-320
-9.62341e-320
-9.52262e-320
-1.00231e-319
-9.824e-320
-1.06229e-319
-1.00177e-319
-1.10458e-319
-1.12395e-319
-1.06743e-319
-1.0822e-319
-1.08798e-319
-1.13467e-319
-5.32547e-312
-9.80902e-301
-1.31015e-289
-1.67619e-278
-4.324e-265
-1.38508e-249
-9.75798e-238
-3.2237e-226
-4.87308e-216
-5.59574e-206
-6.52586e-196
-6.33943e-186
-8.59918e-174
-2.85338e-158
-2.43883e-147
-3.66632e-137
-5.15277e-128
-3.71838e-119
-1.31114e-110
-2.74108e-96
-2.87025e-87
-1.75718e-78
-2.8348e-71
-1.87145e-64
-4.51826e-58
-3.26013e-52
-7.7739e-47
-5.49892e-42
-1.81004e-30
-1.08866e-25
-3.10463e-23
9.7082e-06
7.63819e-07
2.46095e-13
6.50125e-13
2.46096e-13
4.17032e-12
1.52426e-05
8.38205e-11
7.66494e-11
0.0195877
0.084614
0.156857
0.141295
0.0491656
1.94837e-10
0.275289
0.879365
0.722419
0.122161
0.00855009
0.00855637
0.42897
0.967948
0.990857
0.998237
0.997812
0.983588
0.959555
0.960651
0.987288
0.999547
0.999847
0.999847
0.910146
0.864169
0.8641
0.921791
0.972748
0.980524
0.585611
0.1218
0.119138
0.119131
0.119137
0.487633
0.608383
0.608457
0.399111
0.0642837
0.0187286
0.179963
0.841547
0.634747
0.0718216
0.0286206
0.0380505
0.0578562
0.0479261
0.0208732
0.0161539
0.0246583
0.0324951
0.0140005
0.154346
0.718245
0.745938
0.497644
0.0196917
2.79246e-12
2.79246e-12
1.9112e-12
5.71669e-07
2.70261e-10
3.90622e-10
4.82068e-10
5.82395e-10
7.36533e-10
7.76143e-10
0.0953057
0.377371
0.653985
0.893065
0.97288
0.971417
0.915351
0.917405
0.98273
0.999498
0.996853
-9.61551e-320
-1.00923e-319
-1.00073e-319
-9.88329e-320
-9.82598e-320
-9.60266e-320
-1.02425e-319
-9.86946e-320
-1.0242e-319
-1.00453e-319
-1.01264e-319
-9.90453e-320
-9.90799e-320
-9.54584e-320
-9.70345e-320
-9.57697e-320
-1.00997e-319
-9.60068e-320
-1.02079e-319
-1.02202e-319
-9.55078e-320
-9.53003e-320
-9.90355e-320
-9.60464e-320
-9.84772e-320
-9.53695e-320
-9.9075e-320
-1.0115e-319
-9.59772e-320
-1.00211e-319
-9.49841e-320
-1.02425e-319
-9.49446e-320
-9.5577e-320
-1.0244e-319
-1.00483e-319
-9.50681e-320
-1.01575e-319
-9.55029e-320
-9.59179e-320
-1.01778e-319
-9.55968e-320
-9.63527e-320
-9.66886e-320
-9.42183e-320
-9.87835e-320
-9.4658e-320
-9.59475e-320
-9.92133e-320
-9.93171e-320
-9.59525e-320
-9.41887e-320
-1.01911e-319
-9.60958e-320
-9.95345e-320
-9.84179e-320
-9.68616e-320
-9.41294e-320
-9.99347e-320
-1.00137e-319
-9.63428e-320
-1.02212e-319
-1.01214e-319
-9.55325e-320
-1.01926e-319
-9.87094e-320
-9.98655e-320
-9.55523e-320
-1.01363e-319
-1.01348e-319
-9.57203e-320
-9.41294e-320
-1.02207e-319
-9.44308e-320
-1.02034e-319
-9.40701e-320
-1.00142e-319
-9.71778e-320
-9.5656e-320
-9.83092e-320
-9.57351e-320
-9.68369e-320
-9.58537e-320
-1.02118e-319
-9.6822e-320
-9.62539e-320
-9.50187e-320
-9.45197e-320
-9.73309e-320
-9.92627e-320
-9.89861e-320
-9.59278e-320
-1.00379e-319
-9.94011e-320
-9.64021e-320
-1.0035e-319
-9.55474e-320
-9.95789e-320
-9.87785e-320
-9.9159e-320
-9.72469e-320
-9.76125e-320
-9.87736e-320
-9.60809e-320
-9.55572e-320
-1.01101e-319
-9.39861e-320
-9.98902e-320
-9.49051e-320
-9.80572e-320
-9.80226e-320
-1.01185e-319
-9.90602e-320
-1.00281e-319
-9.42233e-320
-9.58833e-320
-9.52954e-320
-9.79337e-320
-9.63033e-320
-9.67776e-320
-1.03032e-319
-9.62983e-320
-1.0321e-319
-9.60958e-320
-1.10443e-319
-1.07148e-319
-1.10893e-319
-1.10513e-319
-1.13378e-319
-1.09169e-319
-3.28776e-313
-6.62845e-302
-9.68148e-291
-1.35214e-279
-4.15671e-266
-1.32737e-250
-1.01622e-238
-3.63999e-227
-5.95125e-217
-7.37149e-207
-9.24616e-197
-9.63048e-187
-1.45689e-174
-4.9319e-159
-4.4717e-148
-7.10331e-138
-1.05061e-128
-7.94493e-120
-2.90956e-111
-6.34745e-97
-6.87207e-88
-4.3292e-79
-7.15146e-72
-4.80938e-65
-1.17638e-58
-8.54908e-53
-2.03992e-47
-1.43335e-42
-4.64597e-31
-2.72176e-26
2.28814e-16
1.16818e-10
1.03031e-08
3.34626e-10
2.78718e-13
7.45775e-13
1.43869e-12
3.1381e-11
1.75046e-11
2.38966e-11
1.15697e-11
1.17598e-11
4.47376e-11
1.54804e-10
1.28212e-10
1.78567e-10
0.00475355
0.0117111
0.00911293
0.00622821
0.00854383
0.00929438
0.00664498
0.000312806
2.99408e-11
4.15603e-07
0.0757198
0.42578
0.360932
0.0704375
1.62623e-06
2.72259e-06
0.29721
0.931736
0.989081
0.989075
0.982675
0.974639
0.974933
0.980503
0.980524
0.884933
0.836394
0.866667
0.873387
0.873429
0.416117
0.0203869
0.0188552
0.0188471
0.0186996
0.0186995
0.330131
0.89471
0.906564
0.825551
0.23163
0.0048465
0.00483765
0.00454249
0.00272931
5.19674e-05
1.14071e-10
2.26338e-10
1.74135e-10
0.0172619
0.0609113
0.0635709
0.0197836
1.1013e-10
8.69702e-12
6.91799e-12
8.6565e-11
2.34116e-10
8.87998e-05
0.000778262
0.00179334
0.00292482
0.00335343
0.00291068
0.000474844
0.00013848
0.000139557
0.0624701
0.60357
0.700641
0.325465
0.318353
0.773214
0.996852
-9.57549e-320
-1.01654e-319
-1.01022e-319
-9.58636e-320
-9.70938e-320
-9.94505e-320
-1.02588e-319
-9.87193e-320
-1.00384e-319
-1.0073e-319
-9.83586e-320
-9.6491e-320
-9.60315e-320
-9.61649e-320
-9.48507e-320
-9.9821e-320
-1.01946e-319
-9.89712e-320
-9.90305e-320
-1.00281e-319
-9.79139e-320
-9.86649e-320
-9.58883e-320
-1.0077e-319
-9.59377e-320
-9.87687e-320
-9.43221e-320
-9.66689e-320
-9.47964e-320
-9.52707e-320
-1.00908e-319
-9.90898e-320
-1.00794e-319
-9.99841e-320
-1.02034e-319
-1.02346e-319
-1.01358e-319
-9.6412e-320
-1.01614e-319
-9.60365e-320
-9.66541e-320
-9.46136e-320
-9.51966e-320
-1.01901e-319
-9.8907e-320
-9.52707e-320
-9.59821e-320
-9.49594e-320
-1.00537e-319
-1.00562e-319
-9.42331e-320
-1.02257e-319
-1.01733e-319
-9.61056e-320
-1.00458e-319
-1.00824e-319
-1.01466e-319
-9.93319e-320
-9.69703e-320
-9.70147e-320
-9.88774e-320
-9.66145e-320
-1.00305e-319
-9.62143e-320
-9.91837e-320
-9.6076e-320
-1.01768e-319
-9.8408e-320
-1.00666e-319
-9.48804e-320
-9.70987e-320
-9.86402e-320
-9.70641e-320
-9.63379e-320
-1.01264e-319
-9.54288e-320
-9.58883e-320
-1.00804e-319
-1.01298e-319
-1.00745e-319
-9.3996e-320
-9.57845e-320
-9.7158e-320
-9.70197e-320
-9.94999e-320
-9.39762e-320
-9.4742e-320
-9.87094e-320
-9.49347e-320
-9.63724e-320
-9.63379e-320
-9.69357e-320
-9.48952e-320
-9.85216e-320
-9.45493e-320
-1.01036e-319
-9.43369e-320
-9.89268e-320
-9.8324e-320
-9.53744e-320
-9.71086e-320
-9.85809e-320
-9.52855e-320
-9.99643e-320
-9.68813e-320
-9.88576e-320
-9.45049e-320
-9.8492e-320
-9.7074e-320
-9.97173e-320
-9.42331e-320
-9.93467e-320
-9.49792e-320
-9.92874e-320
-9.73458e-320
-9.79337e-320
-9.76224e-320
-9.7993e-320
-9.5577e-320
-1.01768e-319
-9.47569e-320
-9.75384e-320
-1.04277e-319
-9.92183e-320
-1.09633e-319
-1.07509e-319
-1.0736e-319
-1.14223e-319
-1.07474e-319
-1.06471e-319
-2.17178e-314
-4.77654e-303
-7.59901e-292
-1.15328e-280
-4.14272e-267
-1.33072e-251
-1.10019e-239
-4.24413e-228
-7.45132e-218
-9.87986e-208
-1.32214e-197
-1.46406e-187
-2.59908e-175
-8.37908e-160
-7.98389e-149
-1.32727e-138
-2.04571e-129
-1.60507e-120
-6.07331e-112
-1.36177e-97
-1.50866e-88
-9.67826e-80
-1.61986e-72
-1.0979e-65
-2.69132e-59
-1.94813e-53
-4.59883e-48
-3.17239e-43
-1.00039e-31
-5.63449e-27
1.75552e-16
1.82388e-16
1.85626e-16
1.63479e-12
4.14287e-13
5.53227e-13
1.0923e-12
6.9165e-13
2.98502e-12
5.74492e-12
1.14461e-11
1.3555e-11
2.91658e-11
3.57435e-11
8.36879e-11
1.71774e-10
9.68083e-11
9.8303e-11
2.19099e-10
7.60706e-11
7.68427e-11
7.32518e-11
6.72054e-11
2.99416e-11
2.99416e-11
2.99407e-11
2.99408e-11
2.99407e-11
1.04572e-06
7.0178e-10
5.43558e-10
0.000103889
0.0127584
0.0217706
0.0148961
1.48956e-05
0.258027
0.683021
0.405283
0.0115971
0.110754
0.747387
0.902379
0.902339
0.707351
0.0646484
0.188904
0.594062
0.597145
0.413886
0.0187006
0.295277
0.881002
0.906564
0.906564
0.848266
0.868021
0.904549
0.904539
0.904549
0.8964
0.30213
1.14294e-10
1.13267e-10
1.74119e-10
1.15298e-10
1.24401e-10
0.000126649
0.0038036
0.00318105
0.00011059
8.05914e-08
3.78837e-10
1.14868e-10
4.64801e-11
4.61628e-11
4.7679e-11
2.48353e-10
2.89423e-09
5.66924e-10
0.0277574
0.0333143
0.0246255
0.00445453
0.00859857
0.0210434
0.00946653
0.00945467
0.236058
0.994235
-9.89959e-320
-9.68566e-320
-1.00068e-319
-9.69159e-320
-9.61699e-320
-9.83734e-320
-1.0034e-319
-9.66639e-320
-9.5493e-320
-1.00048e-319
-1.01941e-319
-1.01244e-319
-1.00592e-319
-1.02711e-319
-9.8828e-320
-9.63033e-320
-1.00276e-319
-1.01199e-319
-9.87687e-320
-9.55622e-320
-1.00068e-319
-9.44406e-320
-9.70296e-320
-9.61649e-320
-9.78744e-320
-9.79189e-320
-9.88082e-320
-1.00004e-319
-9.89515e-320
-9.52904e-320
-1.00947e-319
-9.9658e-320
-9.8492e-320
-1.01377e-319
-9.91194e-320
-9.53151e-320
-1.00592e-319
-9.42233e-320
-9.56906e-320
-9.89416e-320
-9.66343e-320
-9.60908e-320
-1.02578e-319
-9.6906e-320
-9.80374e-320
-9.48359e-320
-9.66541e-320
-9.41491e-320
-9.54732e-320
-9.99149e-320
-9.59377e-320
-1.00676e-319
-9.66195e-320
-9.49693e-320
-9.53102e-320
-1.01397e-319
-1.01259e-319
-9.50385e-320
-9.44703e-320
-9.69554e-320
-9.51768e-320
-9.54881e-320
-1.00814e-319
-1.01881e-319
-9.54881e-320
-9.85859e-320
-9.88625e-320
-1.01111e-319
-9.87785e-320
-9.94505e-320
-1.00691e-319
-9.5241e-320
-9.51966e-320
-9.93764e-320
-9.61353e-320
-9.5824e-320
-9.52707e-320
-9.99742e-320
-9.5409e-320
-1.00532e-319
-9.89268e-320
-1.01249e-319
-9.96728e-320
-1.01684e-319
-9.45098e-320
-9.65503e-320
-9.5409e-320
-9.59031e-320
-9.51916e-320
-9.96432e-320
-1.00794e-319
-9.51175e-320
-1.01244e-319
-9.81807e-320
-9.4742e-320
-1.0117e-319
-9.40602e-320
-9.66689e-320
-9.54782e-320
-9.78349e-320
-9.67381e-320
-9.91244e-320
-9.90058e-320
-9.69801e-320
-9.69011e-320
-1.02202e-319
-9.86402e-320
-9.94159e-320
-9.408e-320
-9.71333e-320
-1.01802e-319
-9.67924e-320
-9.72124e-320
-9.44802e-320
-9.48902e-320
-9.8991e-320
-9.67331e-320
-9.93121e-320
-9.66541e-320
-1.01264e-319
-9.42875e-320
-9.86254e-320
-1.03102e-319
-9.70444e-320
-1.07948e-319
-1.06249e-319
-1.07321e-319
-1.09544e-319
-1.07963e-319
-1.12854e-319
-1.4442e-315
-3.45206e-304
-5.95698e-293
-9.79202e-282
-4.02539e-268
-1.31286e-252
-1.16567e-240
-4.81452e-229
-9.02123e-219
-1.27228e-208
-1.80451e-198
-2.10987e-188
-4.03763e-176
-1.33079e-160
-1.32302e-149
-2.28515e-139
-3.64348e-130
-2.94413e-121
-1.13736e-112
-2.61318e-98
-2.94016e-89
-1.90611e-80
-3.20752e-73
-2.17399e-66
-5.29859e-60
-3.78964e-54
-8.77788e-49
-5.89455e-44
-1.79259e-32
-9.61541e-28
8.39136e-17
1.91392e-16
1.04808e-14
2.67827e-14
1.41154e-13
2.21654e-13
5.30189e-13
6.77518e-13
1.55577e-12
2.22176e-12
5.54241e-12
7.42745e-12
1.65593e-11
2.13673e-11
3.77407e-11
5.98426e-11
9.52833e-11
1.11262e-10
1.44314e-10
2.67047e-10
6.7756e-10
8.1347e-10
7.4332e-10
1.6486e-10
4.52146e-11
2.72844e-08
3.76451e-08
3.29158e-08
2.68518e-09
7.01003e-10
3.80158e-08
3.59437e-06
1.55439e-10
1.14703e-10
5.13031e-10
1.03946e-08
9.46804e-09
0.00120025
0.00205398
0.000558895
0.00123309
0.0402115
0.0663768
0.061267
0.041889
0.010946
5.7889e-10
1.79443e-10
0.00119849
0.113521
0.1546
0.141015
0.0248125
0.167503
0.826617
0.775412
0.176991
0.0164066
0.0163644
0.0478055
0.0750136
0.0569324
0.00485673
1.13494e-10
1.36114e-10
1.15178e-10
1.27641e-10
8.06732e-11
3.93207e-10
1.49053e-06
0.000500685
0.000667713
0.000667236
0.000162997
1.36549e-07
1.39024e-10
3.12864e-10
2.4831e-08
2.79997e-08
3.51395e-09
6.43818e-10
0.000423044
0.000886083
4.4164e-05
5.86097e-08
0.0370915
0.0464333
0.0276752
0.00660285
0.575162
-9.56659e-320
-9.92084e-320
-1.00513e-319
-9.67134e-320
-9.66244e-320
-9.64614e-320
-9.72766e-320
-9.60315e-320
-9.57302e-320
-1.00083e-319
-9.61205e-320
-1.01066e-319
-1.01412e-319
-9.43023e-320
-9.43073e-320
-1.01402e-319
-1.00878e-319
-9.68764e-320
-1.01096e-319
-9.85661e-320
-1.00972e-319
-9.69307e-320
-9.83784e-320
-9.89366e-320
-9.93665e-320
-9.48112e-320
-1.00542e-319
-9.52904e-320
-9.95048e-320
-9.5992e-320
-9.62292e-320
-1.0155e-319
-9.57153e-320
-9.70543e-320
-9.88131e-320
-9.92973e-320
-9.59525e-320
-9.64614e-320
-9.98556e-320
-1.00241e-319
-9.62341e-320
-9.98655e-320
-1.01348e-319
-1.01896e-319
-9.46136e-320
-9.61304e-320
-9.44851e-320
-9.82203e-320
-9.46778e-320
-9.45543e-320
-9.88625e-320
-9.54238e-320
-1.01259e-319
-9.44999e-320
-9.60562e-320
-1.01911e-319
-9.99841e-320
-9.67282e-320
-9.50582e-320
-9.88922e-320
-9.65404e-320
-9.68813e-320
-1.00187e-319
-1.00488e-319
-9.69505e-320
-9.70592e-320
-9.48359e-320
-9.67628e-320
-9.66541e-320
-9.99396e-320
-1.01679e-319
-1.00804e-319
-9.42134e-320
-9.49397e-320
-9.41146e-320
-9.68517e-320
-9.91244e-320
-9.49001e-320
-9.3996e-320
-1.00908e-319
-9.89317e-320
-1.01298e-319
-1.00839e-319
-9.97024e-320
-1.00765e-319
-9.66442e-320
-9.59821e-320
-9.5246e-320
-9.78695e-320
-9.78991e-320
-9.73655e-320
-9.44159e-320
-9.62292e-320
-9.52262e-320
-9.92874e-320
-9.76669e-320
-9.53201e-320
-9.42677e-320
-9.78546e-320
-9.59426e-320
-9.57302e-320
-9.65207e-320
-9.59278e-320
-9.65552e-320
-9.9905e-320
-9.43468e-320
-9.83536e-320
-9.94258e-320
-9.5162e-320
-9.77114e-320
-9.70592e-320
-9.48952e-320
-9.9821e-320
-9.58636e-320
-9.67677e-320
-9.73359e-320
-9.36205e-320
-1.01377e-319
-1.00276e-319
-9.86155e-320
-9.63477e-320
-9.9406e-320
-1.04441e-319
-9.88477e-320
-1.09282e-319
-1.12835e-319
-1.09105e-319
-1.08546e-319
-1.13027e-319
-1.09179e-319
-9.1462e-317
-2.36645e-305
-4.41167e-294
-7.81596e-283
-3.75166e-269
-1.20762e-253
-1.14603e-241
-5.04347e-230
-1.00359e-219
-1.49786e-209
-2.24012e-199
-2.7513e-189
-5.65372e-177
-1.89233e-161
-1.95242e-150
-3.48492e-140
-5.71705e-131
-4.73204e-122
-1.86814e-113
-4.34615e-99
-4.93849e-90
-3.21719e-81
-5.41168e-74
-3.64638e-67
-8.78325e-61
-6.16888e-55
-1.39323e-49
-9.04889e-45
-2.63627e-33
-1.33754e-28
2.75596e-17
6.31695e-17
2.57996e-15
5.44369e-15
3.54223e-14
5.74171e-14
1.75109e-13
2.44335e-13
6.20827e-13
8.59806e-13
2.18963e-12
2.99353e-12
6.88715e-12
9.1473e-12
1.79917e-11
2.26239e-11
3.99225e-11
4.97893e-11
6.51234e-11
9.6433e-11
1.77543e-10
4.15661e-10
6.05727e-10
5.20408e-10
2.59648e-10
1.01515e-09
8.63419e-09
2.76056e-09
8.12298e-09
1.21702e-07
1.22591e-07
8.85196e-09
2.8699e-10
3.76997e-11
1.13063e-06
2.50837e-06
1.21963e-06
1.47336e-09
1.05746e-09
2.4547e-10
6.57497e-11
6.66228e-11
2.82869e-10
2.80523e-10
2.49815e-10
2.4891e-10
2.5435e-10
1.83726e-10
3.61784e-11
3.61784e-11
0.000707336
0.000878512
2.51302e-05
0.00108322
0.0318047
0.0710918
0.0821669
0.0259648
5.92481e-10
9.93948e-10
5.1984e-10
7.73079e-07
0.000103307
7.45674e-05
1.67765e-06
8.37336e-11
8.38085e-11
8.064e-11
9.11993e-09
9.36537e-09
1.5457e-05
7.93134e-07
0.0001201
0.000549884
0.000550153
0.000454723
2.43601e-05
1.74715e-09
4.90759e-10
3.4341e-10
1.33156e-07
3.73921e-08
4.33962e-08
9.84371e-07
4.97306e-08
0.00101895
0.0138715
0.011875
0.00665303
0.0422012
-9.96728e-320
-1.01837e-319
-1.01437e-319
-9.57746e-320
-9.63626e-320
-9.83932e-320
-9.8655e-320
-9.96679e-320
-1.02385e-319
-9.96777e-320
-9.62983e-320
-9.56264e-320
-9.62588e-320
-9.88131e-320
-9.5745e-320
-1.00503e-319
-9.57697e-320
-9.85513e-320
-1.00098e-319
-9.43715e-320
-9.6244e-320
-9.52361e-320
-9.94554e-320
-9.91046e-320
-9.65058e-320
-9.71481e-320
-9.76471e-320
-9.59673e-320
-1.01283e-319
-9.69703e-320
-9.65207e-320
-9.75582e-320
-9.61304e-320
-9.50978e-320
-9.77756e-320
-1.0071e-319
-1.00651e-319
-1.02104e-319
-9.41788e-320
-9.5745e-320
-9.57697e-320
-9.61847e-320
-9.59031e-320
-9.54238e-320
-9.65157e-320
-9.7494e-320
-9.51472e-320
-1.02494e-319
-9.99939e-320
-1.01076e-319
-9.84228e-320
-1.01866e-319
-9.66442e-320
-1.0071e-319
-1.01624e-319
-9.48754e-320
-1.00587e-319
-9.99594e-320
-9.49397e-320
-9.67677e-320
-9.98358e-320
-9.53596e-320
-9.69851e-320
-9.66837e-320
-9.88032e-320
-9.81165e-320
-9.57894e-320
-9.53695e-320
-9.64268e-320
-1.01684e-319
-1.01303e-319
-9.85661e-320
-1.00167e-319
-9.44703e-320
-1.01259e-319
-9.97272e-320
-9.98951e-320
-9.58636e-320
-9.68616e-320
-1.00429e-319
-9.39861e-320
-1.01328e-319
-9.63774e-320
-9.58685e-320
-1.00651e-319
-1.00691e-319
-9.86007e-320
-1.02113e-319
-9.74989e-320
-9.60612e-320
-9.62786e-320
-9.5913e-320
-9.66294e-320
-9.96086e-320
-9.87242e-320
-9.44159e-320
-9.65651e-320
-9.83833e-320
-9.81412e-320
-9.67776e-320
-9.54041e-320
-9.4075e-320
-1.00616e-319
-9.95938e-320
-9.75483e-320
-1.01768e-319
-1.01575e-319
-9.92479e-320
-9.73507e-320
-9.38379e-320
-9.5162e-320
-1.01303e-319
-9.53497e-320
-9.56709e-320
-9.50483e-320
-1.00029e-319
-9.96728e-320
-9.47816e-320
-9.96036e-320
-9.43567e-320
-9.48754e-320
-9.52015e-320
-1.01866e-319
-9.64021e-320
-1.04668e-319
-1.07795e-319
-1.1361e-319
-1.13423e-319
-1.07543e-319
-1.13067e-319
-5.24116e-318
-1.45449e-306
-2.91803e-295
-5.53974e-284
-2.92615e-270
-9.80449e-255
-9.90579e-243
-4.62672e-231
-9.73901e-221
-1.53228e-210
-2.40697e-200
-3.09352e-190
-6.86922e-178
-2.30208e-162
-2.45547e-151
-4.51173e-141
-7.58598e-132
-6.4066e-123
-2.58414e-114
-6.04048e-100
-6.90348e-91
-4.50011e-82
-7.53385e-75
-5.02375e-68
-1.19038e-61
-8.17067e-56
-1.7904e-50
-1.11903e-45
-3.10722e-34
-1.48352e-29
6.27542e-18
1.40185e-17
4.43561e-16
9.06786e-16
6.59138e-15
1.09945e-14
4.15835e-14
6.15116e-14
1.80721e-13
2.56024e-13
6.74426e-13
9.29459e-13
2.16255e-12
2.8778e-12
5.81351e-12
7.25081e-12
1.23483e-11
1.46424e-11
2.23512e-11
2.55469e-11
4.45026e-11
6.11519e-11
1.13088e-10
1.43471e-10
1.32651e-10
7.08095e-11
9.17535e-11
9.27226e-11
4.76025e-09
6.19349e-08
4.76908e-08
4.1799e-09
2.02936e-10
3.0611e-11
7.65858e-12
2.36533e-06
2.62466e-06
2.44948e-06
2.16697e-07
2.21727e-10
1.15375e-10
7.91774e-11
1.05219e-10
1.25429e-10
1.40508e-10
1.55689e-10
1.6936e-10
1.91141e-10
2.34168e-10
4.48234e-10
4.78516e-10
1.94339e-09
1.71685e-10
1.88003e-10
1.71685e-10
1.88003e-10
5.956e-10
7.241e-10
5.79956e-10
3.80388e-10
2.38871e-10
5.44576e-10
3.1985e-10
4.23191e-07
1.84122e-07
6.55766e-07
7.21217e-07
7.21269e-07
7.21354e-07
6.85249e-07
3.09629e-07
3.19418e-08
4.685e-09
2.52317e-06
7.1418e-06
1.25836e-05
1.60317e-05
1.61084e-05
1.61066e-05
6.91251e-06
3.72037e-08
3.70346e-08
3.08658e-05
4.78509e-05
4.7845e-05
1.69341e-05
4.33516e-09
4.25022e-09
0.000451116
3.17262e-09
-9.5824e-320
-9.53695e-320
-1.01585e-319
-9.69703e-320
-1.00636e-319
-9.98062e-320
-9.52015e-320
-9.96333e-320
-9.43962e-320
-9.63724e-320
-9.70098e-320
-1.02153e-319
-9.60365e-320
-9.60562e-320
-1.00928e-319
-9.71333e-320
-1.00547e-319
-9.67232e-320
-9.87193e-320
-9.92281e-320
-9.80424e-320
-9.99149e-320
-9.98556e-320
-9.80523e-320
-9.80226e-320
-9.48952e-320
-9.48902e-320
-9.95839e-320
-9.88477e-320
-9.8408e-320
-1.01535e-319
-9.97815e-320
-9.60711e-320
-1.0114e-319
-9.61748e-320
-1.02109e-319
-9.48952e-320
-1.02395e-319
-1.00068e-319
-9.5824e-320
-9.61798e-320
-9.71333e-320
-9.43764e-320
-9.58191e-320
-1.01308e-319
-9.78398e-320
-1.01985e-319
-9.533e-320
-1.02494e-319
-1.01649e-319
-9.43418e-320
-9.8823e-320
-9.72173e-320
-1.01847e-319
-9.49644e-320
-9.53547e-320
-9.55523e-320
-1.01738e-319
-9.58537e-320
-1.00518e-319
-9.5913e-320
-9.50533e-320
-9.86303e-320
-9.83833e-320
-9.62094e-320
-9.88032e-320