/*--------------------------------*- C++ -*----------------------------------*\
| =========                 |                                                 |
| \\      /  F ield         | OpenFOAM: The Open Source CFD Toolbox           |
|  \\    /   O peration     | Version:  2406                                  |
|   \\  /    A nd           | Website:  www.openfoam.com                      |
|    \\/     M anipulation  |                                                 |
\*---------------------------------------------------------------------------*/
FoamFile
{
    version     2.0;
    format      ascii;
    arch        "LSB;label=32;scalar=64";
    class       volScalarField;
    location    "0.15";
    object      p;
}
// * * * * * * * * * * * * * * * * * * * * * * * * * * * * * * * * * * * * * //

dimensions      [1 -1 -2 0 0 0 0];

internalField   nonuniform List<scalar> 
6250
(
1666.54
4168.06
4457.3
4208.99
4114.3
4129.26
4152.24
4159.13
4158.23
4157.47
4158.28
4159.7
4161.06
4162.27
4163.44
4164.62
4165.82
4167.02
4168.22
4169.43
4170.63
4171.83
4173.04
4174.25
4175.45
4176.66
4177.87
4179.08
4180.28
4181.49
4182.7
4183.91
4185.12
4186.33
4187.54
4188.75
4189.96
4191.17
4192.38
4193.59
4194.8
4196.01
4197.22
4198.43
4199.64
4200.85
4202.06
4203.27
4204.48
4205.69
4206.9
4208.12
4209.33
4210.54
4211.75
4212.96
4214.17
4215.38
4216.59
4217.8
4219.01
4220.22
4221.42
4222.63
4223.84
4225.05
4226.26
4227.47
4228.68
4229.89
4231.1
4232.31
4233.52
4234.73
4235.94
4237.15
4238.35
4239.56
4240.77
4241.98
4243.19
4244.4
4245.61
4246.82
4248.03
4249.23
4250.44
4251.65
4252.86
4254.07
4255.29
4256.5
4257.71
4258.92
4260.14
4261.35
4262.57
4263.78
4265
4266.22
4267.45
4268.67
4269.9
4271.13
4272.37
4273.61
4274.86
4276.11
4277.37
4278.63
4279.91
4281.19
4282.49
4283.79
4285.12
4286.46
4287.82
4289.2
4290.6
4292.03
4293.5
4295
4296.54
4298.13
4299.77
4301.47
4303.23
4305.08
4307.01
4309.04
4311.18
4313.45
4315.86
4318.43
4321.19
4324.15
4327.36
4330.83
4334.6
4338.71
4343.21
4348.15
4353.57
4359.56
4366.17
4373.49
4381.59
4390.57
4400.54
4411.58
4423.82
4437.34
4452.24
4468.56
4486.32
4505.43
4525.66
4546.55
4567.1
4587.09
4609.53
4560.69
4043.2
3485.95
3495.53
3522.15
3562.22
3595.55
3598.95
3558.91
3497.49
3456.14
3444.9
3442.92
3426.87
3391.97
3354.67
3325.16
3296.83
3260.27
3212.52
3160.76
3113.57
3072.6
3034.95
2998.58
2964.2
2930.14
2893.66
2850.86
2801.42
2748.05
2690.93
2628.5
2572.78
2532.5
2499.37
2460.16
2407.9
2356.24
2308.56
2260.6
2207.2
2151.72
2096.06
2038.26
1970.34
1891.14
1804.27
1714.76
1627.75
1559.88
1518.26
1480.17
1415.7
1333.71
1256.03
1194.62
1138.59
1079.38
1015.53
953.477
896.613
845.142
799.251
755.002
708.731
668.887
640.023
621.052
605.626
588.66
570.953
556.543
547.037
541.967
540.259
542.432
551.209
568.378
593.672
625.431
662.721
706.203
756.546
812.508
872.494
937.442
1028.85
1053.38
1661.99
4166.17
4458.09
4209.25
4114.06
4128.99
4152.09
4159.04
4158.16
4157.39
4158.21
4159.65
4161.01
4162.23
4163.4
4164.58
4165.78
4166.99
4168.2
4169.4
4170.61
4171.81
4173.02
4174.23
4175.43
4176.64
4177.85
4179.06
4180.27
4181.48
4182.69
4183.9
4185.11
4186.32
4187.53
4188.74
4189.95
4191.16
4192.37
4193.58
4194.79
4196
4197.21
4198.43
4199.64
4200.85
4202.06
4203.27
4204.48
4205.69
4206.9
4208.11
4209.32
4210.53
4211.74
4212.95
4214.16
4215.37
4216.58
4217.79
4219
4220.21
4221.42
4222.63
4223.84
4225.05
4226.26
4227.47
4228.68
4229.89
4231.1
4232.31
4233.52
4234.72
4235.93
4237.14
4238.35
4239.56
4240.77
4241.98
4243.19
4244.4
4245.6
4246.81
4248.02
4249.23
4250.44
4251.65
4252.86
4254.07
4255.28
4256.49
4257.7
4258.92
4260.13
4261.34
4262.56
4263.77
4264.99
4266.21
4267.43
4268.66
4269.89
4271.12
4272.35
4273.59
4274.83
4276.08
4277.33
4278.59
4279.86
4281.14
4282.43
4283.73
4285.05
4286.38
4287.72
4289.09
4290.48
4291.9
4293.35
4294.83
4296.34
4297.91
4299.52
4301.18
4302.91
4304.71
4306.59
4308.56
4310.64
4312.84
4315.16
4317.64
4320.29
4323.13
4326.19
4329.5
4333.09
4336.99
4341.25
4345.91
4351.02
4356.64
4362.83
4369.67
4377.22
4385.57
4394.81
4405.03
4416.32
4428.78
4442.48
4457.47
4473.77
4491.29
4509.8
4528.82
4547.12
4563.44
4585.33
4506.12
4268.07
4042.5
3812.36
3625.01
3711.08
3854
3872.96
3678.16
3474.22
3406.88
3411.14
3416.35
3416.91
3399.02
3364.45
3336.9
3313.65
3280.76
3235.47
3192.01
3158.55
3124.12
3079.08
3029.17
2991.13
2966.96
2944.44
2909.14
2856.33
2794.36
2727.31
2666.72
2608.84
2586.61
2579.03
2519.68
2379.92
2266.54
2231.11
2235.75
2232.29
2237.06
2254.61
2218.06
2060.61
1869.4
1766.5
1722.98
1664.26
1612.74
1603.18
1575.31
1440.16
1262.99
1213.78
1227.89
1218.56
1156.38
1065.35
998.066
943.917
887.087
821.461
764.551
732.575
667.709
615.437
595.815
595.307
581.647
558.908
540.971
531.485
526.983
524.498
524.295
531.345
550.399
579.719
613.782
650.968
699.155
754.146
814.209
875.3
939.546
1003.25
1030.16
1662.54
4166.64
4458.15
4209.23
4114.04
4129
4152.12
4159.08
4158.19
4157.43
4158.25
4159.68
4161.04
4162.26
4163.43
4164.62
4165.82
4167.02
4168.22
4169.43
4170.63
4171.84
4173.04
4174.25
4175.46
4176.66
4177.87
4179.08
4180.29
4181.5
4182.71
4183.92
4185.13
4186.34
4187.55
4188.76
4189.97
4191.18
4192.39
4193.6
4194.81
4196.02
4197.23
4198.44
4199.65
4200.86
4202.07
4203.28
4204.49
4205.7
4206.91
4208.12
4209.33
4210.54
4211.75
4212.96
4214.17
4215.38
4216.59
4217.8
4219.01
4220.22
4221.43
4222.64
4223.85
4225.06
4226.27
4227.47
4228.68
4229.89
4231.1
4232.31
4233.52
4234.73
4235.94
4237.15
4238.36
4239.56
4240.77
4241.98
4243.19
4244.4
4245.61
4246.82
4248.02
4249.23
4250.44
4251.65
4252.86
4254.07
4255.28
4256.49
4257.7
4258.91
4260.12
4261.34
4262.55
4263.76
4264.98
4266.2
4267.41
4268.64
4269.86
4271.08
4272.31
4273.54
4274.78
4276.02
4277.27
4278.52
4279.78
4281.04
4282.32
4283.6
4284.9
4286.21
4287.53
4288.87
4290.23
4291.61
4293.02
4294.45
4295.92
4297.42
4298.96
4300.55
4302.2
4303.9
4305.67
4307.51
4309.44
4311.47
4313.61
4315.87
4318.28
4320.83
4323.57
4326.5
4329.66
4333.07
4336.75
4340.75
4345.1
4349.82
4354.98
4360.6
4366.72
4373.39
4380.64
4388.5
4396.97
4406.02
4415.57
4425.46
4435.39
4444.82
4452.82
4457.81
4456.8
4444.93
4417.44
4367.97
4325.35
4195.35
3889.95
3582.49
3677.13
3711.88
3678.34
3483.78
3295.88
3305.27
3521.64
3709.26
3680.12
3359.51
3243.86
3313.95
3379.09
3358.19
3238.42
3075.78
2995.62
2990.97
2995.81
2977.09
2955.62
2959.31
2956.03
2922.97
2870.21
2796.09
2740.51
2701.08
2636.46
2552.1
2506.47
2567.94
2604.86
2557.74
2529.87
2418.49
2225.02
2116.57
1994.62
1955.32
1999.39
2011.47
2026.61
1953.22
1574.92
1259.14
1380.93
1627.54
1657.41
1504.43
1262.73
1134.91
1081.76
1035.73
954.233
906.522
849.523
772.719
735.473
721.34
681.735
689.372
650.404
566.414
570.153
553.798
534.522
523.935
520.969
523.342
521.197
506.204
490.674
497.56
526.111
558.136
599.998
657.784
727.515
801.909
867.11
919.31
963.228
966.133
1661.56
4165.86
4457.85
4208.99
4113.81
4128.78
4151.92
4158.91
4158.04
4157.29
4158.13
4159.57
4160.94
4162.17
4163.35
4164.54
4165.74
4166.95
4168.16
4169.37
4170.58
4171.79
4173
4174.21
4175.41
4176.62
4177.83
4179.04
4180.26
4181.47
4182.68
4183.89
4185.1
4186.31
4187.52
4188.73
4189.94
4191.15
4192.36
4193.57
4194.78
4196
4197.21
4198.42
4199.63
4200.84
4202.05
4203.26
4204.47
4205.68
4206.89
4208.1
4209.31
4210.52
4211.74
4212.95
4214.16
4215.37
4216.58
4217.79
4219
4220.21
4221.42
4222.63
4223.84
4225.05
4226.25
4227.46
4228.67
4229.88
4231.09
4232.3
4233.51
4234.72
4235.93
4237.14
4238.35
4239.55
4240.76
4241.97
4243.18
4244.39
4245.6
4246.81
4248.01
4249.22
4250.43
4251.64
4252.85
4254.06
4255.27
4256.47
4257.68
4258.89
4260.1
4261.31
4262.52
4263.74
4264.95
4266.16
4267.38
4268.59
4269.81
4271.03
4272.25
4273.48
4274.7
4275.94
4277.17
4278.41
4279.65
4280.9
4282.16
4283.42
4284.69
4285.97
4287.27
4288.57
4289.89
4291.23
4292.58
4293.96
4295.36
4296.78
4298.24
4299.73
4301.26
4302.84
4304.46
4306.15
4307.89
4309.71
4311.6
4313.58
4315.67
4317.86
4320.18
4322.64
4325.25
4328.02
4330.98
4334.13
4337.5
4341.09
4344.92
4348.99
4353.3
4357.84
4362.56
4367.42
4372.31
4377.07
4381.45
4385.07
4387.37
4387.47
4384.08
4375.29
4358.23
4328.73
4281.38
4203.47
4107.57
4051.88
4027.72
3977.97
3813.8
3541.39
3381.62
3321.43
3273.74
3329.25
3396.29
3403.88
3371.25
3261.34
3151.61
3305.57
3463.78
3408.51
3367.98
3346.34
3328.44
3319.67
3204.54
2937.66
2722.25
2940.6
3204.41
3267.43
3033.93
2679.35
2416.56
2393.24
2377.26
2288.24
2219.39
2281.56
2422.15
2490.05
2364.48
2330.06
2272.69
2213.08
2179.49
2172.98
2330.06
2339.58
1924.19
1792.81
1583.73
1246.26
893.944
963.246
1412.5
1661.36
1695.12
1476.66
1229.03
1106.74
1005.8
878.634
703.02
624.901
601.313
578.193
632.629
595.26
572.962
555.308
536.25
532.26
530.689
529.639
529.377
530.215
532.171
532.518
532.886
528.782
530.726
542.4
535.189
567.934
675.293
790.02
858.022
878.277
880.203
766.491
1661.5
4165.83
4457.82
4208.98
4113.8
4128.78
4151.93
4158.92
4158.06
4157.31
4158.15
4159.6
4160.97
4162.2
4163.38
4164.57
4165.78
4166.99
4168.2
4169.4
4170.61
4171.82
4173.03
4174.24
4175.45
4176.66
4177.86
4179.07
4180.28
4181.49
4182.7
4183.91
4185.12
4186.33
4187.54
4188.75
4189.96
4191.18
4192.39
4193.6
4194.81
4196.02
4197.23
4198.44
4199.65
4200.86
4202.07
4203.28
4204.49
4205.7
4206.91
4208.12
4209.33
4210.54
4211.75
4212.96
4214.17
4215.38
4216.59
4217.8
4219.01
4220.22
4221.43
4222.64
4223.85
4225.06
4226.27
4227.48
4228.69
4229.9
4231.1
4232.31
4233.52
4234.73
4235.94
4237.15
4238.36
4239.57
4240.77
4241.98
4243.19
4244.4
4245.61
4246.81
4248.02
4249.23
4250.44
4251.64
4252.85
4254.06
4255.27
4256.47
4257.68
4258.89
4260.1
4261.3
4262.51
4263.72
4264.93
4266.14
4267.35
4268.56
4269.77
4270.98
4272.2
4273.41
4274.63
4275.85
4277.07
4278.29
4279.52
4280.74
4281.98
4283.21
4284.46
4285.7
4286.96
4288.22
4289.49
4290.77
4292.06
4293.37
4294.68
4296.02
4297.37
4298.74
4300.14
4301.56
4303.01
4304.5
4306.01
4307.57
4309.18
4310.83
4312.54
4314.3
4316.13
4318.02
4319.99
4322.03
4324.14
4326.33
4328.59
4330.91
4333.26
4335.63
4337.98
4340.24
4342.33
4344.12
4345.44
4346.06
4345.65
4343.75
4339.73
4332.74
4321.64
4304.9
4280.52
4245.95
4198.24
4133.23
4053.23
3964.34
3850.14
3725.97
3642.56
3618.19
3651.88
3724.19
3777.33
3719.36
3527.27
3334.44
3256.45
3251.09
3242.38
3179.66
3181.66
3210.07
3250.1
3300.77
3320.06
3290.71
3246.55
3199.88
3148.78
3182.77
3171.3
3137.66
3105.15
2931.93
2770.58
2885.65
2956.25
2159.23
1950.95
2376.64
2766.9
2745.56
1764.28
1634.53
1878.78
2048.24
2235.15
2190.22
1688.29
1573.88
1530.5
1557.81
1598.55
1564.2
1467.84
1006.27
777.519
911.889
792.477
789.032
782.537
778.64
752.174
717.837
682.355
664.785
643.829
574.607
547.129
539.627
535.726
538.607
539.071
537.754
536.091
534.008
533.239
533.252
533.994
536.033
538.131
531.205
543.229
562.665
573.448
566.908
580.694
728.184
856.03
851.963
732.621
322.134
1661.11
4165.53
4457.7
4208.85
4113.65
4128.63
4151.79
4158.79
4157.95
4157.21
4158.05
4159.5
4160.88
4162.12
4163.3
4164.5
4165.71
4166.92
4168.13
4169.35
4170.56
4171.77
4172.98
4174.19
4175.4
4176.61
4177.82
4179.03
4180.25
4181.46
4182.67
4183.88
4185.09
4186.3
4187.51
4188.72
4189.94
4191.15
4192.36
4193.57
4194.78
4195.99
4197.2
4198.41
4199.62
4200.84
4202.05
4203.26
4204.47
4205.68
4206.89
4208.1
4209.31
4210.52
4211.73
4212.94
4214.15
4215.36
4216.57
4217.78
4218.99
4220.2
4221.41
4222.62
4223.83
4225.04
4226.25
4227.46
4228.67
4229.88
4231.09
4232.3
4233.51
4234.72
4235.93
4237.14
4238.34
4239.55
4240.76
4241.97
4243.18
4244.38
4245.59
4246.8
4248.01
4249.21
4250.42
4251.63
4252.83
4254.04
4255.25
4256.45
4257.66
4258.86
4260.07
4261.28
4262.48
4263.69
4264.89
4266.1
4267.3
4268.51
4269.71
4270.91
4272.12
4273.32
4274.53
4275.73
4276.94
4278.14
4279.35
4280.56
4281.77
4282.97
4284.18
4285.4
4286.61
4287.82
4289.04
4290.26
4291.48
4292.71
4293.94
4295.17
4296.41
4297.65
4298.9
4300.16
4301.42
4302.69
4303.97
4305.25
4306.54
4307.84
4309.15
4310.45
4311.76
4313.07
4314.37
4315.65
4316.9
4318.1
4319.24
4320.28
4321.18
4321.9
4322.37
4322.5
4322.17
4321.23
4319.49
4316.68
4312.5
4306.51
4298.18
4286.84
4271.67
4251.68
4225.7
4192.41
4150.47
4098.46
4036.53
3967.23
3893.02
3822.83
3763.28
3708.7
3650.25
3581.2
3505.17
3435.77
3379.85
3345.82
3343.51
3364.73
3380.03
3371.92
3356.09
3356.41
3364.12
3365.41
3366.98
3381.47
3408.82
3444.17
3436.26
3252.18
2965.46
2881.29
2878.99
2882.83
2885.62
2904.89
2858.59
2731.87
2562.53
2628.81
2622.97
2443.86
1865.08
1536.36
1865.63
2359.86
2486.47
2190.4
1889.35
1716.77
1552.88
1542.7
1722.87
1882.95
2007.26
1173.17
824.896
816.015
860.042
1020.86
984.743
911.395
776.229
659.173
600.656
592.344
587.261
579.483
563.246
538.805
523.328
528.236
531.603
531.416
530.664
529.885
529.301
527.918
528.043
532.147
535.257
543.526
556.254
595.295
625.235
627.946
591.062
571.79
667.06
703.235
462.835
-270.992
1660.97
4165.42
4457.65
4208.8
4113.61
4128.59
4151.76
4158.77
4157.93
4157.2
4158.05
4159.5
4160.89
4162.12
4163.31
4164.51
4165.72
4166.94
4168.15
4169.37
4170.58
4171.79
4173
4174.21
4175.42
4176.64
4177.85
4179.06
4180.27
4181.48
4182.69
4183.9
4185.12
4186.33
4187.54
4188.75
4189.96
4191.17
4192.38
4193.59
4194.8
4196.01
4197.23
4198.44
4199.65
4200.86
4202.07
4203.28
4204.49
4205.7
4206.91
4208.12
4209.33
4210.54
4211.75
4212.96
4214.17
4215.38
4216.59
4217.8
4219.01
4220.22
4221.43
4222.64
4223.85
4225.06
4226.27
4227.48
4228.69
4229.9
4231.11
4232.32
4233.52
4234.73
4235.94
4237.15
4238.36
4239.57
4240.77
4241.98
4243.19
4244.4
4245.6
4246.81
4248.02
4249.22
4250.43
4251.64
4252.84
4254.05
4255.25
4256.46
4257.66
4258.86
4260.07
4261.27
4262.47
4263.67
4264.87
4266.07
4267.27
4268.47
4269.67
4270.86
4272.06
4273.25
4274.45
4275.64
4276.83
4278.02
4279.2
4280.39
4281.57
4282.75
4283.92
4285.1
4286.27
4287.43
4288.59
4289.75
4290.9
4292.05
4293.18
4294.31
4295.44
4296.55
4297.65
4298.73
4299.8
4300.85
4301.88
4302.89
4303.87
4304.81
4305.71
4306.56
4307.36
4308.08
4308.72
4309.26
4309.68
4309.94
4310.02
4309.87
4309.45
4308.68
4307.48
4305.76
4303.39
4300.21
4296.04
4290.64
4283.73
4274.97
4263.93
4250.15
4233.06
4212.06
4186.47
4155.64
4119.01
4076.2
4027.48
3974.15
3917.51
3859.03
3800.16
3742.13
3687.07
3637.93
3595.55
3556.5
3515.83
3474.02
3435.88
3402.3
3368.02
3333.51
3307.77
3295.83
3293.68
3294.44
3292.03
3281.48
3259.09
3224.75
3176.95
3115.46
3075.01
3085.27
3134.24
3213.72
3258.89
3243.97
3215.86
3266.53
3184.39
2626.6
2093.81
2059.29
2079.14
2007.96
1919.23
1931.07
1917.48
1912.82
1890.8
1828.85
1722.17
1606.07
1687.72
1822.74
1646.72
1073.2
563.245
704.266
1427.66
1443.72
1271.89
773.546
595.503
559.004
561.807
569.473
566.457
556.019
546.421
542.339
540.158
536.448
533.273
533.477
530.509
527.361
526.858
529.12
532.227
534.617
539.09
544.954
547.293
550.726
557.902
569.253
568.155
536.392
862.046
1537.05
1213.46
453.757
1660.78
4165.27
4457.59
4208.74
4113.53
4128.51
4151.69
4158.7
4157.86
4157.13
4157.98
4159.44
4160.83
4162.07
4163.26
4164.46
4165.68
4166.89
4168.11
4169.32
4170.54
4171.75
4172.96
4174.18
4175.39
4176.6
4177.82
4179.03
4180.24
4181.45
4182.66
4183.88
4185.09
4186.3
4187.51
4188.72
4189.93
4191.15
4192.36
4193.57
4194.78
4195.99
4197.2
4198.41
4199.62
4200.84
4202.05
4203.26
4204.47
4205.68
4206.89
4208.1
4209.31
4210.52
4211.73
4212.94
4214.15
4215.36
4216.57
4217.78
4218.99
4220.2
4221.41
4222.62
4223.83
4225.04
4226.25
4227.46
4228.67
4229.88
4231.09
4232.3
4233.51
4234.72
4235.93
4237.14
4238.34
4239.55
4240.76
4241.97
4243.18
4244.38
4245.59
4246.8
4248
4249.21
4250.41
4251.62
4252.82
4254.03
4255.23
4256.44
4257.64
4258.84
4260.04
4261.24
4262.44
4263.64
4264.83
4266.03
4267.22
4268.42
4269.61
4270.8
4271.98
4273.17
4274.35
4275.53
4276.7
4277.87
4279.04
4280.2
4281.36
4282.51
4283.65
4284.79
4285.92
4287.04
4288.15
4289.24
4290.33
4291.39
4292.44
4293.48
4294.48
4295.47
4296.42
4297.35
4298.23
4299.08
4299.88
4300.62
4301.3
4301.91
4302.43
4302.86
4303.18
4303.37
4303.41
4303.27
4302.94
4302.36
4301.51
4300.32
4298.74
4296.71
4294.13
4290.9
4286.9
4281.99
4276.01
4268.74
4259.95
4249.39
4236.74
4221.67
4203.81
4182.78
4158.2
4129.73
4097.11
4060.24
4019.24
3974.59
3926.98
3877.39
3827.27
3778.07
3730.7
3685.21
3640.7
3596.08
3551.47
3508.87
3470.88
3438.69
3411.82
3389.65
3371.89
3357.87
3345.86
3333.48
3318.84
3301.05
3279.73
3254.04
3221.63
3180.57
3135.47
3093.87
3058.04
3022.87
2980.04
2927.07
2861.78
2781.81
2670.95
2542.17
2479.54
2522.13
2624.96
2616.62
2408.6
2126.73
1926.1
1860.3
1893.81
1951.75
2004.18
1954.64
1748.26
1536.57
1470.34
1403.5
1093.33
296.674
445.057
665.712
683.807
664.792
626.384
589.196
572.225
571.72
571.442
565.285
557.442
549.834
543.366
539.218
536.984
533.741
528.574
525.01
525.678
528.043
530.501
535.591
545.607
559.022
571.876
578.882
582.34
598.454
631.534
641.019
612.268
634.45
625.535
326.641
1660.67
4165.19
4457.55
4208.7
4113.49
4128.47
4151.65
4158.67
4157.84
4157.11
4157.97
4159.43
4160.82
4162.06
4163.26
4164.46
4165.68
4166.9
4168.12
4169.33
4170.55
4171.76
4172.98
4174.19
4175.4
4176.62
4177.83
4179.04
4180.26
4181.47
4182.68
4183.89
4185.11
4186.32
4187.53
4188.74
4189.95
4191.16
4192.38
4193.59
4194.8
4196.01
4197.22
4198.43
4199.64
4200.85
4202.07
4203.28
4204.49
4205.7
4206.91
4208.12
4209.33
4210.54
4211.75
4212.96
4214.17
4215.38
4216.59
4217.8
4219.01
4220.22
4221.43
4222.64
4223.85
4225.06
4226.27
4227.48
4228.69
4229.9
4231.11
4232.32
4233.53
4234.74
4235.95
4237.15
4238.36
4239.57
4240.78
4241.99
4243.19
4244.4
4245.61
4246.81
4248.02
4249.22
4250.43
4251.63
4252.84
4254.04
4255.24
4256.45
4257.65
4258.85
4260.05
4261.24
4262.44
4263.63
4264.83
4266.02
4267.21
4268.4
4269.58
4270.76
4271.94
4273.12
4274.29
4275.45
4276.62
4277.77
4278.92
4280.06
4281.2
4282.32
4283.44
4284.54
4285.63
4286.71
4287.77
4288.81
4289.83
4290.83
4291.8
4292.74
4293.65
4294.52
4295.35
4296.12
4296.85
4297.51
4298.09
4298.6
4299.02
4299.33
4299.52
4299.58
4299.48
4299.2
4298.72
4298.01
4297.03
4295.75
4294.11
4292.07
4289.55
4286.5
4282.82
4278.43
4273.2
4267.01
4259.72
4251.15
4241.13
4229.45
4215.89
4200.2
4182.15
4161.49
4138.01
4111.51
4081.88
4049.1
4013.29
3974.73
3933.89
3891.37
3847.87
3804.02
3760.24
3716.81
3674
3632.16
3591.81
3553.54
3517.85
3484.91
3454.43
3425.91
3399.01
3373.69
3349.68
3326.28
3302.49
3277.34
3249.88
3219.32
3185.15
3147.71
3109.2
3073.08
3040.99
3011.49
2979.74
2940.03
2888.75
2824.73
2744.87
2646.52
2539.57
2433.59
2328.14
2206.02
2077.79
1974.35
1912.27
1886.23
1873.99
1847.4
1803.35
1748.84
1681.67
1634.49
1638.83
1676.21
1601.65
1299.73
810.351
467.29
420.815
508.625
533.958
533.658
541.864
552.538
557.536
554.908
548.213
541.308
535.871
532.606
531.857
533.196
534.339
530.561
522.769
517.146
519.215
527.364
534.646
537.895
536.468
535.327
550.908
600.622
686.808
786.872
805.607
753.587
527.755
138.202
1660.57
4165.11
4457.52
4208.66
4113.44
4128.43
4151.61
4158.63
4157.8
4157.08
4157.93
4159.4
4160.79
4162.03
4163.23
4164.43
4165.65
4166.87
4168.09
4169.31
4170.52
4171.74
4172.95
4174.17
4175.38
4176.6
4177.81
4179.02
4180.24
4181.45
4182.66
4183.87
4185.09
4186.3
4187.51
4188.72
4189.93
4191.15
4192.36
4193.57
4194.78
4195.99
4197.2
4198.41
4199.63
4200.84
4202.05
4203.26
4204.47
4205.68
4206.89
4208.1
4209.31
4210.52
4211.73
4212.95
4214.16
4215.37
4216.58
4217.79
4219
4220.21
4221.42
4222.63
4223.84
4225.05
4226.26
4227.47
4228.68
4229.89
4231.1
4232.3
4233.51
4234.72
4235.93
4237.14
4238.35
4239.56
4240.76
4241.97
4243.18
4244.39
4245.59
4246.8
4248
4249.21
4250.41
4251.62
4252.82
4254.03
4255.23
4256.43
4257.63
4258.83
4260.03
4261.22
4262.42
4263.61
4264.8
4265.99
4267.17
4268.36
4269.54
4270.72
4271.89
4273.06
4274.22
4275.38
4276.53
4277.67
4278.81
4279.93
4281.05
4282.15
4283.24
4284.32
4285.38
4286.42
4287.44
4288.44
4289.41
4290.35
4291.26
4292.13
4292.95
4293.72
4294.44
4295.1
4295.69
4296.2
4296.61
4296.93
4297.13
4297.19
4297.11
4296.87
4296.43
4295.78
4294.88
4293.71
4292.23
4290.38
4288.14
4285.43
4282.2
4278.39
4273.9
4268.64
4262.53
4255.45
4247.26
4237.84
4227.04
4214.69
4200.64
4184.71
4166.72
4146.54
4124
4099.02
4071.54
4041.57
4009.19
3974.61
3938.08
3899.98
3860.7
3820.66
3780.27
3739.91
3699.89
3660.5
3621.95
3584.47
3548.32
3513.69
3480.67
3449.22
3419.23
3390.55
3362.83
3335.53
3307.94
3279.4
3249.39
3217.54
3183.69
3147.94
3110.69
3072.44
3033.12
2991.66
2946.06
2894.36
2835.45
2768.94
2694.48
2612.6
2528.27
2448.8
2377.55
2308.95
2236.57
2160.79
2087.26
2020.85
1961.51
1905.01
1846.48
1780.25
1700.63
1606.87
1495.1
1350.26
1148.42
911.553
720.062
630.189
627.121
638.99
631.021
612.53
596.706
585.524
575.964
566.066
556.068
546.957
539.298
533.252
528.616
524.72
520.643
516.266
512.781
511.884
513.872
517.461
521.411
526.003
532.445
542.163
556.097
572.114
581.768
568.51
516.715
422.932
273.131
86.9961
1660.51
4165.06
4457.5
4208.64
4113.42
4128.41
4151.59
4158.61
4157.78
4157.06
4157.92
4159.39
4160.78
4162.02
4163.22
4164.43
4165.65
4166.87
4168.09
4169.31
4170.53
4171.74
4172.96
4174.17
4175.39
4176.6
4177.82
4179.03
4180.25
4181.46
4182.67
4183.89
4185.1
4186.31
4187.52
4188.74
4189.95
4191.16
4192.37
4193.58
4194.8
4196.01
4197.22
4198.43
4199.64
4200.85
4202.06
4203.28
4204.49
4205.7
4206.91
4208.12
4209.33
4210.54
4211.75
4212.96
4214.17
4215.38
4216.6
4217.81
4219.02
4220.23
4221.44
4222.65
4223.86
4225.07
4226.28
4227.49
4228.7
4229.91
4231.12
4232.32
4233.53
4234.74
4235.95
4237.16
4238.37
4239.58
4240.78
4241.99
4243.2
4244.41
4245.61
4246.82
4248.03
4249.23
4250.44
4251.64
4252.84
4254.05
4255.25
4256.45
4257.65
4258.85
4260.04
4261.24
4262.43
4263.62
4264.81
4266
4267.18
4268.36
4269.54
4270.71
4271.88
4273.04
4274.2
4275.35
4276.49
4277.63
4278.75
4279.87
4280.97
4282.06
4283.13
4284.19
4285.23
4286.25
4287.24
4288.2
4289.13
4290.03
4290.89
4291.7
4292.46
4293.17
4293.81
4294.38
4294.86
4295.26
4295.55
4295.72
4295.76
4295.65
4295.37
4294.9
4294.22
4293.29
4292.09
4290.59
4288.73
4286.49
4283.81
4280.64
4276.91
4272.56
4267.51
4261.68
4254.97
4247.3
4238.54
4228.58
4217.31
4204.58
4190.28
4174.26
4156.42
4136.63
4114.8
4090.86
4064.79
4036.61
4006.38
3974.24
3940.38
3905.04
3868.5
3831.08
3793.1
3754.83
3716.56
3678.52
3640.95
3604.06
3568.05
3533.08
3499.21
3466.38
3434.48
3403.29
3372.55
3341.91
3310.99
3279.41
3246.81
3212.9
3177.47
3140.36
3101.52
3060.94
3018.45
2973.64
2925.81
2874.17
2818.1
2757.25
2691.62
2621.76
2549.07
2475.15
2400.45
2323.74
2244.23
2163.86
2086.22
2013.57
1945.23
1878.13
1808.56
1733.53
1651.29
1561.71
1465.52
1363.42
1253.63
1137.56
1023.66
922.418
840.689
777.185
726.139
682.974
648.113
620.867
598.905
580.224
563.865
549.452
536.501
525.482
516.527
509.002
502.428
496.636
491.624
487.49
484.255
481.744
479.563
477.211
474.187
469.98
463.895
454.381
437.994
409.184
361.899
291.206
195.253
78.8562
1660.48
4165.03
4457.49
4208.63
4113.4
4128.39
4151.57
4158.6
4157.77
4157.05
4157.9
4159.37
4160.77
4162.01
4163.21
4164.42
4165.64
4166.86
4168.08
4169.3
4170.51
4171.73
4172.95
4174.16
4175.38
4176.59
4177.81
4179.02
4180.23
4181.45
4182.66
4183.87
4185.09
4186.3
4187.51
4188.72
4189.93
4191.15
4192.36
4193.57
4194.78
4195.99
4197.2
4198.42
4199.63
4200.84
4202.05
4203.26
4204.47
4205.68
4206.89
4208.1
4209.32
4210.53
4211.74
4212.95
4214.16
4215.37
4216.58
4217.79
4219
4220.21
4221.42
4222.63
4223.84
4225.05
4226.26
4227.47
4228.68
4229.89
4231.1
4232.31
4233.52
4234.73
4235.94
4237.15
4238.36
4239.56
4240.77
4241.98
4243.19
4244.39
4245.6
4246.81
4248.01
4249.22
4250.42
4251.63
4252.83
4254.03
4255.24
4256.44
4257.64
4258.83
4260.03
4261.23
4262.42
4263.61
4264.8
4265.99
4267.17
4268.35
4269.53
4270.7
4271.86
4273.03
4274.18
4275.33
4276.47
4277.6
4278.72
4279.83
4280.92
4282
4283.07
4284.12
4285.14
4286.14
4287.12
4288.06
4288.98
4289.85
4290.68
4291.46
4292.19
4292.85
4293.45
4293.96
4294.39
4294.72
4294.93
4295.02
4294.96
4294.75
4294.35
4293.75
4292.92
4291.83
4290.45
4288.75
4286.68
4284.2
4281.27
4277.82
4273.81
4269.15
4263.79
4257.63
4250.6
4242.61
4233.55
4223.32
4211.81
4198.92
4184.52
4168.53
4150.82
4131.31
4109.94
4086.65
4061.42
4034.27
4005.26
3974.49
3942.11
3908.31
3873.32
3837.37
3800.74
3763.67
3726.41
3689.21
3652.26
3615.77
3579.88
3544.7
3510.26
3476.55
3443.48
3410.91
3378.64
3346.43
3313.99
3281.04
3247.26
3212.39
3176.2
3138.46
3099.03
3057.72
3014.31
2968.49
2919.83
2867.88
2812.3
2752.91
2689.8
2623.34
2554.18
2483.22
2411.24
2338.77
2266.16
2193.91
2122.56
2052.19
1982.15
1911.1
1837.43
1759.58
1676.28
1586.53
1489.39
1385.52
1274.85
1158.63
1043.12
937.899
849.692
778.886
721.9
675.574
636.379
602.951
574.699
550.833
530.595
513.564
499.788
488.497
479.274
470.633
462.637
455.477
449.044
443.171
437.688
432.312
426.593
419.984
411.885
401.599
388.173
370.197
345.64
311.959
266.67
208.363
137.671
57.8965
1660.46
4165.02
4457.48
4208.62
4113.4
4128.38
4151.57
4158.59
4157.77
4157.04
4157.9
4159.37
4160.77
4162.01
4163.21
4164.42
4165.64
4166.86
4168.08
4169.3
4170.52
4171.74
4172.95
4174.17
4175.38
4176.6
4177.81
4179.03
4180.24
4181.46
4182.67
4183.88
4185.1
4186.31
4187.52
4188.73
4189.95
4191.16
4192.37
4193.58
4194.8
4196.01
4197.22
4198.43
4199.64
4200.85
4202.07
4203.28
4204.49
4205.7
4206.91
4208.12
4209.33
4210.54
4211.75
4212.97
4214.18
4215.39
4216.6
4217.81
4219.02
4220.23
4221.44
4222.65
4223.86
4225.07
4226.28
4227.49
4228.7
4229.91
4231.12
4232.33
4233.54
4234.75
4235.96
4237.17
4238.38
4239.59
4240.8
4242
4243.21
4244.42
4245.63
4246.83
4248.04
4249.25
4250.45
4251.66
4252.86
4254.06
4255.27
4256.47
4257.67
4258.87
4260.06
4261.26
4262.45
4263.64
4264.83
4266.02
4267.2
4268.38
4269.56
4270.73
4271.9
4273.06
4274.21
4275.36
4276.5
4277.63
4278.75
4279.86
4280.96
4282.04
4283.1
4284.15
4285.17
4286.17
4287.14
4288.09
4288.99
4289.86
4290.69
4291.46
4292.18
4292.83
4293.41
4293.92
4294.33
4294.64
4294.83
4294.89
4294.81
4294.56
4294.13
4293.49
4292.61
4291.47
4290.04
4288.27
4286.13
4283.58
4280.56
4277.02
4272.91
4268.15
4262.68
4256.41
4249.27
4241.16
4231.99
4221.67
4210.08
4197.12
4182.7
4166.7
4149.03
4129.62
4108.4
4085.32
4060.37
4033.56
4004.96
3974.64
3942.76
3909.48
3875.01
3839.56
3803.4
3766.75
3729.86
3692.96
3656.25
3619.9
3584.05
3548.82
3514.24
3480.29
3446.92
3413.98
3381.29
3348.62
3315.71
3282.27
3248.04
3212.75
3176.17
3138.08
3098.27
3056.56
3012.7
2966.43
2917.41
2865.37
2810.06
2751.43
2689.6
2624.91
2557.9
2489.23
2419.51
2349.13
2278.21
2206.86
2135.22
2063.39
1991.16
1917.8
1842.1
1762.72
1678.52
1588.84
1493.9
1393.21
1288.16
1181.99
1079.22
983.938
898.826
824.816
761.373
707.181
660.824
621.301
587.82
559.52
535.503
514.966
497.174
481.204
466.065
452.334
440.852
431.058
422.185
413.812
405.628
397.243
388.182
377.907
365.823
351.246
333.37
311.254
283.838
250.062
209.096
160.674
105.405
45.1212
1660.48
4165.03
4457.49
4208.63
4113.4
4128.39
4151.57
4158.6
4157.77
4157.04
4157.9
4159.37
4160.77
4162.01
4163.21
4164.42
4165.64
4166.86
4168.08
4169.3
4170.51
4171.73
4172.95
4174.16
4175.38
4176.59
4177.81
4179.02
4180.23
4181.45
4182.66
4183.87
4185.09
4186.3
4187.51
4188.72
4189.94
4191.15
4192.36
4193.57
4194.78
4195.99
4197.21
4198.42
4199.63
4200.84
4202.05
4203.26
4204.47
4205.69
4206.9
4208.11
4209.32
4210.53
4211.74
4212.95
4214.16
4215.37
4216.58
4217.79
4219.01
4220.22
4221.43
4222.64
4223.85
4225.06
4226.27
4227.48
4228.69
4229.9
4231.11
4232.32
4233.53
4234.74
4235.95
4237.16
4238.37
4239.58
4240.79
4241.99
4243.2
4244.41
4245.62
4246.83
4248.03
4249.24
4250.45
4251.65
4252.86
4254.06
4255.27
4256.47
4257.67
4258.87
4260.07
4261.27
4262.46
4263.65
4264.85
4266.03
4267.22
4268.4
4269.58
4270.76
4271.93
4273.09
4274.25
4275.4
4276.55
4277.69
4278.81
4279.93
4281.03
4282.12
4283.19
4284.24
4285.28
4286.29
4287.27
4288.23
4289.15
4290.03
4290.87
4291.66
4292.4
4293.08
4293.68
4294.21
4294.65
4294.99
4295.22
4295.32
4295.28
4295.08
4294.69
4294.1
4293.28
4292.2
4290.83
4289.13
4287.06
4284.59
4281.64
4278.19
4274.15
4269.47
4264.07
4257.88
4250.8
4242.74
4233.61
4223.29
4211.69
4198.69
4184.18
4168.06
4150.23
4130.59
4109.09
4085.68
4060.33
4033.09
4004
3973.18
3940.77
3906.96
3871.99
3836.08
3799.51
3762.52
3725.35
3688.25
3651.42
3615.06
3579.3
3544.25
3509.95
3476.37
3443.41
3410.95
3378.77
3346.64
3314.26
3281.32
3247.55
3212.65
3176.4
3138.61
3099.1
3057.71
3014.21
2968.27
2919.48
2867.42
2811.78
2752.47
2689.65
2623.78
2555.62
2486.17
2416.33
2346.6
2277.21
2208.42
2140.54
2073.57
2006.84
1938.89
1867.85
1791.8
1709.16
1618.84
1520.14
1412.58
1296.46
1174.09
1050.43
932.363
827.096
739.714
670.849
617.036
573.878
538.416
509.005
484.43
463.621
445.742
430.221
416.698
405.084
395.899
387.964
379.89
371.95
364.329
356.785
348.872
340.118
330.076
318.298
304.284
287.472
267.229
242.871
213.749
179.283
139.014
92.7602
41.0226
1660.51
4165.06
4457.5
4208.64
4113.42
4128.4
4151.59
4158.61
4157.78
4157.06
4157.92
4159.38
4160.78
4162.02
4163.22
4164.43
4165.65
4166.87
4168.09
4169.31
4170.52
4171.74
4172.96
4174.17
4175.39
4176.6
4177.82
4179.03
4180.25
4181.46
4182.67
4183.89
4185.1
4186.31
4187.52
4188.74
4189.95
4191.16
4192.37
4193.59
4194.8
4196.01
4197.22
4198.43
4199.64
4200.86
4202.07
4203.28
4204.49
4205.7
4206.91
4208.12
4209.34
4210.55
4211.76
4212.97
4214.18
4215.39
4216.6
4217.81
4219.02
4220.24
4221.45
4222.66
4223.87
4225.08
4226.29
4227.5
4228.71
4229.92
4231.13
4232.34
4233.55
4234.76
4235.97
4237.18
4238.39
4239.6
4240.81
4242.02
4243.23
4244.44
4245.65
4246.85
4248.06
4249.27
4250.48
4251.68
4252.89
4254.1
4255.3
4256.51
4257.71
4258.91
4260.11
4261.31
4262.51
4263.7
4264.9
4266.09
4267.28
4268.47
4269.65
4270.83
4272.01
4273.18
4274.34
4275.5
4276.66
4277.8
4278.94
4280.07
4281.18
4282.28
4283.37
4284.44
4285.5
4286.53
4287.54
4288.52
4289.47
4290.39
4291.27
4292.11
4292.89
4293.62
4294.29
4294.88
4295.39
4295.81
4296.13
4296.33
4296.4
4296.31
4296.06
4295.62
4294.96
4294.05
4292.87
4291.38
4289.53
4287.29
4284.6
4281.41
4277.65
4273.26
4268.15
4262.25
4255.45
4247.66
4238.76
4228.65
4217.18
4204.25
4189.71
4173.45
4155.34
4135.27
4113.17
4088.97
4062.66
4034.26
4003.86
3971.59
3937.66
3902.29
3865.78
3828.44
3790.57
3752.45
3714.36
3676.51
3639.16
3602.51
3566.78
3532.1
3498.5
3465.94
3434.29
3403.32
3372.76
3342.25
3311.41
3279.85
3247.22
3213.24
3177.69
3140.43