/*--------------------------------*- C++ -*----------------------------------*\
| =========                 |                                                 |
| \\      /  F ield         | OpenFOAM: The Open Source CFD Toolbox           |
|  \\    /   O peration     | Version:  2406                                  |
|   \\  /    A nd           | Website:  www.openfoam.com                      |
|    \\/     M anipulation  |                                                 |
\*---------------------------------------------------------------------------*/
FoamFile
{
    version     2.0;
    format      ascii;
    arch        "LSB;label=32;scalar=64";
    class       volScalarField;
    location    "0.15";
    object      p_rgh;
}
// * * * * * * * * * * * * * * * * * * * * * * * * * * * * * * * * * * * * * //

dimensions      [1 -1 -2 0 0 0 0];

internalField   nonuniform List<scalar> 
6250
(
1666.53
4168.05
4457.29
4208.98
4114.28
4129.24
4152.21
4159.09
4158.19
4157.42
4158.23
4159.65
4161
4162.21
4163.37
4164.55
4165.74
4166.94
4168.13
4169.33
4170.53
4171.73
4172.93
4174.13
4175.33
4176.54
4177.74
4178.94
4180.15
4181.35
4182.56
4183.76
4184.96
4186.17
4187.37
4188.58
4189.79
4190.99
4192.2
4193.4
4194.61
4195.81
4197.02
4198.22
4199.43
4200.63
4201.84
4203.05
4204.25
4205.46
4206.66
4207.87
4209.07
4210.28
4211.48
4212.69
4213.89
4215.1
4216.3
4217.51
4218.71
4219.92
4221.12
4222.33
4223.53
4224.74
4225.94
4227.15
4228.35
4229.56
4230.76
4231.97
4233.17
4234.37
4235.58
4236.78
4237.99
4239.19
4240.39
4241.6
4242.8
4244.01
4245.21
4246.42
4247.62
4248.82
4250.03
4251.23
4252.44
4253.64
4254.85
4256.06
4257.26
4258.47
4259.68
4260.89
4262.1
4263.32
4264.53
4265.75
4266.96
4268.19
4269.41
4270.64
4271.87
4273.1
4274.34
4275.59
4276.84
4278.11
4279.37
4280.65
4281.95
4283.25
4284.57
4285.9
4287.26
4288.63
4290.03
4291.46
4292.92
4294.41
4295.95
4297.53
4299.17
4300.86
4302.63
4304.47
4306.39
4308.42
4310.55
4312.82
4315.22
4317.79
4320.54
4323.5
4326.7
4330.16
4333.93
4338.04
4342.53
4347.47
4352.89
4358.87
4365.48
4372.79
4380.88
4389.86
4399.82
4410.86
4423.09
4436.61
4451.5
4467.82
4485.58
4504.68
4524.91
4545.79
4566.34
4586.32
4608.76
4559.91
3469.73
2677.63
2682.27
2703.95
2739.07
2767.46
2765.92
2720.93
2654.57
2608.27
2592.08
2585.17
2564.48
2524.66
2482.31
2447.63
2414.38
2375.53
2323.07
2266.18
2211.67
2165.42
2122.82
2081.51
2044.84
2004.77
1961.89
1914.09
1859.71
1801.39
1739.33
1672.66
1613.05
1567.2
1528.04
1484.73
1427.6
1370.96
1317.95
1265.08
1206.75
1147.62
1094.84
1037.54
960.54
871.863
775.382
679.794
587.846
515.446
470.74
426.869
355.479
268.485
185.961
119.686
58.6317
-5.52924
-74.3232
-141.32
-203.127
-259.431
-309.249
-357.951
-410.947
-455.834
-489.642
-513.556
-533.86
-555.524
-578.097
-597.635
-612.285
-622.304
-628.956
-631.727
-627.885
-615.655
-595.32
-568.505
-535.966
-497.417
-452.224
-401.206
-346.164
-286.161
-199.697
-180.11
1661.99
4166.17
4458.07
4209.23
4114.04
4128.97
4152.06
4159
4158.12
4157.35
4158.16
4159.59
4160.95
4162.16
4163.33
4164.51
4165.71
4166.91
4168.11
4169.31
4170.51
4171.71
4172.91
4174.11
4175.32
4176.52
4177.72
4178.93
4180.13
4181.34
4182.54
4183.75
4184.95
4186.16
4187.36
4188.57
4189.78
4190.98
4192.19
4193.39
4194.6
4195.8
4197.01
4198.22
4199.42
4200.63
4201.83
4203.04
4204.24
4205.45
4206.66
4207.86
4209.07
4210.27
4211.48
4212.68
4213.89
4215.09
4216.3
4217.51
4218.71
4219.92
4221.12
4222.33
4223.53
4224.73
4225.94
4227.14
4228.35
4229.55
4230.76
4231.96
4233.17
4234.37
4235.57
4236.78
4237.98
4239.19
4240.39
4241.6
4242.8
4244
4245.21
4246.41
4247.62
4248.82
4250.02
4251.23
4252.43
4253.64
4254.85
4256.05
4257.26
4258.47
4259.67
4260.88
4262.09
4263.31
4264.52
4265.73
4266.95
4268.17
4269.39
4270.62
4271.85
4273.08
4274.32
4275.56
4276.81
4278.07
4279.33
4280.6
4281.89
4283.19
4284.5
4285.82
4287.16
4288.53
4289.91
4291.33
4292.77
4294.24
4295.76
4297.31
4298.92
4300.58
4302.3
4304.1
4305.97
4307.94
4310.01
4312.2
4314.53
4317
4319.64
4322.48
4325.54
4328.84
4332.42
4336.32
4340.57
4345.23
4350.34
4355.95
4362.14
4368.97
4376.52
4384.86
4394.1
4404.31
4415.6
4428.05
4441.74
4456.73
4473.02
4490.54
4509.05
4528.06
4546.36
4562.67
4584.56
4505.35
4204.34
3915.06
3300.19
2806.99
2887.92
3025.9
3039.92
2840.18
2631.3
2559.08
2558.44
2558.68
2554.23
2531.38
2491.86
2459.37
2431.17
2393.33
2343.12
2294.71
2256.31
2216.94
2166.95
2112.13
2071.77
2042.56
2013.66
1972.42
1914.61
1847.7
1805.41
1775.11
1663.3
1620.18
1607.65
1543.36
1398.66
1280.33
1239.96
1257.21
1277.43
1277.49
1279.29
1217.45
1054.81
920.009
844.124
796.183
662.325
587.97
582.715
541.413
380.323
197.766
143.606
152.776
138.5
81.9194
32.0653
-39.7484
-140.153
-217.487
-287.293
-162.755
-83.5536
-278.204
-476.408
-533.112
-539.291
-557.341
-585.468
-610.307
-627.29
-637.288
-644.717
-649.745
-644.909
-630.428
-608.659
-580.154
-524.459
-466.936
-421.453
-395.386
-343.357
-282.95
-223.762
-203.179
1662.53
4166.63
4458.14
4209.21
4114.02
4128.97
4152.09
4159.04
4158.15
4157.38
4158.2
4159.63
4160.98
4162.19
4163.36
4164.54
4165.74
4166.94
4168.14
4169.33
4170.53
4171.73
4172.94
4174.14
4175.34
4176.54
4177.75
4178.95
4180.15
4181.36
4182.56
4183.77
4184.97
4186.17
4187.38
4188.58
4189.79
4191
4192.2
4193.41
4194.61
4195.82
4197.02
4198.23
4199.43
4200.64
4201.84
4203.05
4204.25
4205.46
4206.67
4207.87
4209.08
4210.28
4211.49
4212.69
4213.9
4215.1
4216.31
4217.51
4218.72
4219.92
4221.13
4222.33
4223.54
4224.74
4225.95
4227.15
4228.35
4229.56
4230.76
4231.97
4233.17
4234.38
4235.58
4236.78
4237.99
4239.19
4240.4
4241.6
4242.8
4244.01
4245.21
4246.41
4247.62
4248.82
4250.03
4251.23
4252.43
4253.64
4254.84
4256.05
4257.26
4258.46
4259.67
4260.88
4262.09
4263.29
4264.51
4265.72
4266.93
4268.15
4269.37
4270.59
4271.81
4273.04
4274.27
4275.5
4276.74
4277.99
4279.24
4280.5
4281.77
4283.05
4284.35
4285.65
4286.97
4288.3
4289.66
4291.04
4292.44
4293.87
4295.33
4296.83
4298.37
4299.95
4301.59
4303.29
4305.05
4306.89
4308.82
4310.84
4312.97
4315.23
4317.63
4320.18
4322.91
4325.84
4329
4332.4
4336.08
4340.07
4344.41
4349.13
4354.28
4359.9
4366.02
4372.68
4379.93
4387.78
4396.24
4405.29
4414.84
4424.72
4434.65
4444.07
4452.07
4457.05
4456.04
4444.17
4416.67
4367.08
4324.57
4194.57
3870.71
3522.15
3490.65
3373.9
3464.47
3288.95
2789.72
2464.39
2672.71
2870.18
2832.98
2492.82
2371.27
2439.29
2513.89
2495.32
2358.16
2182.5
2103.47
2100.18
2099.58
2061.65
2036.22
2054.76
2050.48
1991.1
1928.49
1866.48
1886.91
1843.66
1716.81
1585.67
1695.41
2198.28
2237.91
1995.82
1554.43
1422.4
1223.98
1110.59
1007.43
1523.28
1654.92
1596.89
1098.32
932.217
549.046
228.397
415.251
1350.74
1591.87
1232.85
405.881
194.038
313.291
489.14
377.981
166.066
-115.024
-330.814
-373.045
-358.136
74.5342
432.9
400.096
96.2735
-24.9273
3.87402
51.7033
23.1743
-110.469
-310.621
-445.251
-531.085
-606.432
-652.105
-656.958
-572.54
-500.744
-513.421
-448.505
-300.412
-237.301
-240.159
-264.693
-264.189
1661.56
4165.85
4457.83
4208.98
4113.79
4128.76
4151.89
4158.87
4158
4157.25
4158.08
4159.52
4160.88
4162.1
4163.28
4164.46
4165.66
4166.87
4168.07
4169.28
4170.48
4171.68
4172.89
4174.09
4175.3
4176.5
4177.71
4178.91
4180.12
4181.32
4182.53
4183.74
4184.94
4186.15
4187.35
4188.56
4189.77
4190.97
4192.18
4193.38
4194.59
4195.8
4197
4198.21
4199.41
4200.62
4201.83
4203.03
4204.24
4205.44
4206.65
4207.86
4209.06
4210.27
4211.47
4212.68
4213.88
4215.09
4216.29
4217.5
4218.71
4219.91
4221.12
4222.32
4223.53
4224.73
4225.94
4227.14
4228.34
4229.55
4230.75
4231.96
4233.16
4234.37
4235.57
4236.77
4237.98
4239.18
4240.39
4241.59
4242.79
4244
4245.2
4246.4
4247.61
4248.81
4250.01
4251.22
4252.42
4253.63
4254.83
4256.03
4257.24
4258.44
4259.65
4260.85
4262.06
4263.27
4264.48
4265.68
4266.89
4268.11
4269.32
4270.53
4271.75
4272.97
4274.19
4275.42
4276.65
4277.88
4279.12
4280.36
4281.62
4282.87
4284.14
4285.42
4286.71
4288.01
4289.32
4290.65
4292
4293.37
4294.77
4296.19
4297.64
4299.13
4300.66
4302.23
4303.85
4305.52
4307.26
4309.07
4310.96
4312.94
4315.02
4317.21
4319.53
4321.98
4324.58
4327.35
4330.3
4333.45
4336.81
4340.4
4344.23
4348.29
4352.6
4357.13
4361.85
4366.7
4371.59
4376.34
4380.72
4384.34
4386.62
4386.72
4383.33
4374.54
4357.47
4327.96
4280.61
4202.68
4106.79
4051.09
4026.93
3977.17
3813
3540.57
3380.81
3320.62
3256.63
3257.26
3261.86
3281.56
3327.34
3260.49
2915.19
2535.12
2822.72
3296.36
3359.51
3337.82
2947.94
2443.04
2300.85
2022.22
1802.18
2028.62
2310.09
2367.6
2104.41
1733.06
1465.02
1436.75
1500.43
1453.14
1380.1
1382.18
1467.77
1523.04
1775.27
2207.2
2152.56
2092.36
2058.18
1681.3
1708.57
1715.01
1507.97
1723.88
1563.25
1061.01
10.9112
289.724
1333.45
1629.1
1653.56
1413.28
1175.98
1082.86
987.099
850.501
666.022
608.144
429.763
-222.381
-202.788
33.8359
549.312
554.205
535.142
531.147
529.571
528.517
528.25
529.083
531.034
531.376
531.739
415.558
82.3701
-238.243
-535.468
-603.277
-499.038
-321.149
-260.094
-324.173
-347.72
-463.125
1661.49
4165.83
4457.81
4208.96
4113.78
4128.75
4151.9
4158.88
4158.02
4157.27
4158.1
4159.54
4160.91
4162.13
4163.31
4164.5
4165.7
4166.9
4168.11
4169.31
4170.51
4171.72
4172.92
4174.12
4175.33
4176.53
4177.74
4178.94
4180.15
4181.35
4182.56
4183.76
4184.97
4186.17
4187.38
4188.58
4189.79
4191
4192.2
4193.41
4194.61
4195.82
4197.02
4198.23
4199.43
4200.64
4201.85
4203.05
4204.26
4205.46
4206.67
4207.87
4209.08
4210.28
4211.49
4212.69
4213.9
4215.1
4216.31
4217.51
4218.72
4219.92
4221.13
4222.33
4223.54
4224.74
4225.95
4227.15
4228.36
4229.56
4230.77
4231.97
4233.17
4234.38
4235.58
4236.79
4237.99
4239.19
4240.4
4241.6
4242.8
4244.01
4245.21
4246.41
4247.61
4248.82
4250.02
4251.22
4252.43
4253.63
4254.83
4256.03
4257.24
4258.44
4259.64
4260.85
4262.05
4263.25
4264.46
4265.66
4266.87
4268.07
4269.28
4270.49
4271.7
4272.91
4274.12
4275.33
4276.55
4277.76
4278.98
4280.21
4281.44
4282.67
4283.91
4285.15
4286.4
4287.66
4288.92
4290.2
4291.48
4292.78
4294.1
4295.43
4296.77
4298.14
4299.53
4300.95
4302.39
4303.87
4305.39
4306.94
4308.54
4310.19
4311.89
4313.65
4315.47
4317.36
4319.32
4321.36
4323.47
4325.65
4327.9
4330.22
4332.57
4334.94
4337.28
4339.53
4341.61
4343.4
4344.72
4345.34
4344.92
4343.01
4338.99
4332
4320.89
4304.14
4279.75
4245.19
4197.47
4132.45
4052.45
3963.55
3849.35
3725.17
3641.76
3617.38
3651.07
3723.37
3776.51
3718.53
3526.44
3333.61
3255.61
3250.25
3237.48
3168.54
3172.74
3203.68
3241.64
3291.58
3313.19
3289.53
3245.67
3198.99
3080.81
2789.64
2832.1
3068.47
3104.24
2931.01
2495.05
1997.93
2005.16
1203.25
996.131
1424.89
1810.15
1778.57
792.42
751.127
1041.79
1176.79
1352.01
1302.73
1250.57
1551.36
1510.1
1537.32
1578.09
1543.65
1132.88
64.2902
-183.948
26.397
533.67
782.765
776.263
772.639
748.1
716.706
681.285
663.71
642.75
554.368
477.991
467.092
512.15
537.504
537.963
536.641
534.973
532.886
532.009
531.215
530.762
531.463
533.04
526.62
541.51
561.333
572.109
491.329
-148.021
-123.363
457.656
461.315
-217.74
-907.481
1661.11
4165.52
4457.68
4208.83
4113.63
4128.61
4151.76
4158.76
4157.91
4157.16
4158
4159.45
4160.82
4162.05
4163.23
4164.42
4165.63
4166.84
4168.05
4169.25
4170.46
4171.66
4172.87
4174.08
4175.28
4176.49
4177.7
4178.9
4180.11
4181.32
4182.52
4183.73
4184.93
4186.14
4187.35
4188.55
4189.76
4190.97
4192.17
4193.38
4194.59
4195.79
4197
4198.2
4199.41
4200.62
4201.82
4203.03
4204.24
4205.44
4206.65
4207.85
4209.06
4210.26
4211.47
4212.68
4213.88
4215.09
4216.29
4217.5
4218.7
4219.91
4221.11
4222.32
4223.52
4224.73
4225.93
4227.14
4228.34
4229.55
4230.75
4231.96
4233.16
4234.36
4235.57
4236.77
4237.98
4239.18
4240.38
4241.59
4242.79
4243.99
4245.2
4246.4
4247.6
4248.8
4250
4251.21
4252.41
4253.61
4254.81
4256.01
4257.21
4258.42
4259.62
4260.82
4262.02
4263.22
4264.42
4265.62
4266.82
4268.02
4269.22
4270.42
4271.62
4272.82
4274.02
4275.22
4276.42
4277.62
4278.82
4280.02
4281.22
4282.43
4283.63
4284.84
4286.05
4287.26
4288.47
4289.68
4290.9
4292.12
4293.35
4294.58
4295.81
4297.05
4298.29
4299.54
4300.8
4302.07
4303.34
4304.62
4305.91
4307.2
4308.5
4309.8
4311.11
4312.41
4313.7
4314.98
4316.22
4317.42
4318.55
4319.59
4320.49
4321.2
4321.67
4321.79
4321.45
4320.51
4318.76
4315.96
4311.77
4305.77
4297.43
4286.09
4270.92
4250.92
4224.93
4191.64
4149.7
4097.68
4035.75
3966.44
3892.23
3822.04
3762.48
3707.9
3649.44
3580.38
3504.35
3434.94
3379.02
3344.99
3342.68
3363.88
3379.18
3371.07
3355.23
3355.55
3363.25
3364.54
3366.11
3380.59
3407.94
3443.27
3435.36
3251.28
2964.55
2880.38
2878.07
2881.84
2872.83
2883.12
2843.22
2730.92
2320.92
1961.35
2216.27
2429.71
1760.08
799.834
962.134
1451.94
1761.81
2118.39
1704.97
1108.85
937.218
1103.71
1702.42
1586.21
1085.96
216.19
-136.571
-88.3118
-68.2007
48.1128
7.53212
-70.3001
-206.337
312.929
599.586
591.269
586.182
578.399
562.158
537.577
517.962
523.508
530.362
530.303
529.546
528.763
528.173
526.786
526.906
531.006
534.111
542.374
522.467
554.473
594.303
621.38
579.487
544.902
654.292
690.43
170.337
-1498.02
1660.96
4165.41
4457.64
4208.79
4113.59
4128.57
4151.73
4158.74
4157.89
4157.15
4157.99
4159.45
4160.83
4162.06
4163.24
4164.44
4165.64
4166.86
4168.06
4169.27
4170.48
4171.69
4172.89
4174.1
4175.31
4176.51
4177.72
4178.93
4180.13
4181.34
4182.55
4183.75
4184.96
4186.17
4187.37
4188.58
4189.78
4190.99
4192.2
4193.4
4194.61
4195.81
4197.02
4198.23
4199.43
4200.64
4201.84
4203.05
4204.26
4205.46
4206.67
4207.87
4209.08
4210.28
4211.49
4212.7
4213.9
4215.11
4216.31
4217.52
4218.72
4219.93
4221.13
4222.34
4223.54
4224.75
4225.95
4227.16
4228.36
4229.56
4230.77
4231.97
4233.18
4234.38
4235.58
4236.79
4237.99
4239.19
4240.4
4241.6
4242.8
4244.01
4245.21
4246.41
4247.61
4248.81
4250.01
4251.22
4252.42
4253.62
4254.82
4256.02
4257.22
4258.41
4259.61
4260.81
4262.01
4263.2
4264.4
4265.6
4266.79
4267.98
4269.18
4270.37
4271.56
4272.75
4273.94
4275.12
4276.31
4277.49
4278.67
4279.85
4281.03
4282.2
4283.37
4284.54
4285.71
4286.87
4288.02
4289.18
4290.32
4291.46
4292.6
4293.72
4294.84
4295.94
4297.04
4298.12
4299.18
4300.23
4301.26
4302.26
4303.23
4304.17
4305.06
4305.91
4306.7
4307.42
4308.06
4308.59
4309
4309.26
4309.34
4309.18
4308.75
4307.98
4306.77
4305.05
4302.67
4299.49
4295.32
4289.91
4283
4274.23
4263.19
4249.4
4232.31
4211.3
4185.71
4154.88
4118.24
4075.42
4026.7
3973.36
3916.72
3858.24
3799.36
3741.32
3686.27
3637.12
3594.73
3555.68
3515
3473.19
3435.04
3401.46
3367.17
3332.66
3306.91
3294.97
3292.82
3293.57
3291.16
3280.6
3258.21
3223.86
3176.05
3114.56
3074.1
3084.36
3133.32
3212.8
3257.97
3243.04
3214.92
3265.59
3183.45
2624.51
2090.82
2057.75
2077.14
1967.8
1851.75
1868.21
1873.63
1900.2
1889.8
1827.86
1720.4
1490.26
1527.28
1673.09
1617.99
905.028
-305.476
-129.751
1224.79
1425.19
1253.33
721.669
512.693
494.552
554.795
568.399
565.378
554.935
545.332
541.245
539.06
535.345
531.61
531.601
528.625
526.038
525.73
527.988
531.09
533.475
537.943
543.803
546.137
549.068
555.66
568.022
566.98
491.357
804.7
1501.72
1203.91
-257.936
1660.78
4165.27
4457.58
4208.72
4113.51
4128.49
4151.66
4158.67
4157.82
4157.09
4157.93
4159.39
4160.77
4162
4163.19
4164.39
4165.6
4166.81
4168.02
4169.23
4170.44
4171.65
4172.86
4174.06
4175.27
4176.48
4177.69
4178.9
4180.1
4181.31
4182.52
4183.72
4184.93
4186.14
4187.35
4188.55
4189.76
4190.97
4192.17
4193.38
4194.59
4195.79
4197
4198.2
4199.41
4200.62
4201.82
4203.03
4204.24
4205.44
4206.65
4207.85
4209.06
4210.27
4211.47
4212.68
4213.88
4215.09
4216.29
4217.5
4218.7
4219.91
4221.11
4222.32
4223.52
4224.73
4225.93
4227.14
4228.34
4229.55
4230.75
4231.96
4233.16
4234.37
4235.57
4236.77
4237.98
4239.18
4240.38
4241.59
4242.79
4243.99
4245.19
4246.39
4247.6
4248.8
4250
4251.2
4252.4
4253.6
4254.8
4256
4257.19
4258.39
4259.59
4260.78
4261.98
4263.17
4264.36
4265.55
4266.74
4267.93
4269.12
4270.3
4271.48
4272.66
4273.84
4275.01
4276.18
4277.35
4278.51
4279.67
4280.82
4281.96
4283.1
4284.24
4285.36
4286.47
4287.58
4288.67
4289.75
4290.81
4291.86
4292.88
4293.89
4294.87
4295.82
4296.73
4297.62
4298.46
4299.25
4299.99
4300.66
4301.26
4301.78
4302.21
4302.52
4302.71
4302.74
4302.6
4302.26
4301.68
4300.82
4299.63
4298.05
4296.01
4293.42
4290.19
4286.19
4281.28
4275.28
4268.01
4259.22
4248.65
4236
4220.93
4203.06
4182.02
4157.44
4128.96
4096.34
4059.46
4018.46
3973.81
3926.19
3876.6
3826.47
3777.27
3729.89
3684.4
3639.88
3595.25
3550.65
3508.04
3470.04
3437.84
3410.97
3388.8
3371.04
3357.01
3344.99
3332.61
3317.96
3300.17
3278.85
3253.15
3220.74
3179.67
3134.56
3092.96
3057.13
3021.95
2979.11
2926.14
2860.85
2780.87
2670
2541.22
2478.59
2521.17
2623.99
2615.65
2407.62
2125.75
1925.12
1859.31
1892.82
1950.75
2003.18
1953.64
1746.57
1534.61
1469.28
1401.59
1059.55
220.441
354.703
635.078
682.757
663.737
625.324
588.131
571.043
570.561
570.36
564.201
556.353
548.741
542.268
538.115
535.858
532.626
527.345
523.256
523.916
526.357
529.327
534.449
544.461
557.871
570.72
577.721
581.174
597.282
630.359
638.687
594.293
618.649
615.929
272.591
1660.67
4165.18
4457.54
4208.68
4113.46
4128.45
4151.62
4158.64
4157.8
4157.06
4157.92
4159.37
4160.76
4162
4163.19
4164.39
4165.6
4166.81
4168.03
4169.24
4170.45
4171.66
4172.87
4174.08
4175.29
4176.49
4177.7
4178.91
4180.12
4181.33
4182.53
4183.74
4184.95
4186.16
4187.36
4188.57
4189.78
4190.98
4192.19
4193.4
4194.6
4195.81
4197.02
4198.22
4199.43
4200.64
4201.84
4203.05
4204.25
4205.46
4206.67
4207.87
4209.08
4210.28
4211.49
4212.7
4213.9
4215.11
4216.31
4217.52
4218.72
4219.93
4221.13
4222.34
4223.54
4224.75
4225.95
4227.16
4228.36
4229.57
4230.77
4231.98
4233.18
4234.38
4235.59
4236.79
4237.99
4239.2
4240.4
4241.6
4242.81
4244.01
4245.21
4246.41
4247.61
4248.81
4250.01
4251.21
4252.41
4253.61
4254.81
4256.01
4257.2
4258.4
4259.59
4260.78
4261.98
4263.17
4264.35
4265.54
4266.73
4267.91
4269.09
4270.27
4271.44
4272.61
4273.78
4274.94
4276.09
4277.25
4278.39
4279.53
4280.66
4281.78
4282.89
4283.99
4285.07
4286.14
4287.2
4288.24
4289.25
4290.25
4291.21
4292.15
4293.05
4293.92
4294.74
4295.51
4296.23
4296.88
4297.47
4297.97
4298.38
4298.69
4298.87
4298.93
4298.82
4298.54
4298.06
4297.34
4296.36
4295.07
4293.42
4291.38
4288.86
4285.8
4282.12
4277.72
4272.49
4266.29
4258.99
4250.43
4240.4
4228.71
4215.14
4199.45
4181.4
4160.73
4137.24
4110.74
4081.11
4048.33
4012.51
3973.95
3933.1
3890.57
3847.07
3803.22
3759.43
3716
3673.18
3631.33
3590.98
3552.71
3517.01
3484.07
3453.58
3425.05
3398.16
3372.82
3348.81
3325.4
3301.62
3276.45
3248.99
3218.43
3184.25
3146.81
3108.29
3072.17
3040.07
3010.57
2978.81
2939.1
2887.81
2823.79
2743.92
2645.57
2538.61
2432.63
2327.18
2205.05
2076.81
1973.37
1911.29
1885.25
1873
1846.41
1802.34
1747.83
1680.66
1633.47
1637.8
1675.19
1600.62
1298.7
809.31
466.245
419.765
507.57
532.898
532.593
540.794
551.463
556.456
553.823
547.124
540.213
534.772
531.502
530.749
532.083
533.221
529.436
521.633
516
518.059
526.203
533.48
536.731
535.312
534.166
549.715
599.394
685.575
785.664
804.422
752.397
525.991
137.003
1660.57
4165.1
4457.51
4208.65
4113.42
4128.4
4151.58
4158.6
4157.76
4157.03
4157.88
4159.34
4160.73
4161.97
4163.16
4164.36
4165.57
4166.79
4168
4169.21
4170.43
4171.64
4172.85
4174.06
4175.26
4176.47
4177.68
4178.89
4180.1
4181.31
4182.52
4183.72
4184.93
4186.14
4187.34
4188.55
4189.76
4190.97
4192.17
4193.38
4194.59
4195.79
4197
4198.21
4199.41
4200.62
4201.82
4203.03
4204.24
4205.44
4206.65
4207.86
4209.06
4210.27
4211.47
4212.68
4213.88
4215.09
4216.3
4217.5
4218.71
4219.91
4221.12
4222.32
4223.53
4224.73
4225.94
4227.14
4228.35
4229.55
4230.76
4231.96
4233.16
4234.37
4235.57
4236.78
4237.98
4239.18
4240.39
4241.59
4242.79
4243.99
4245.2
4246.4
4247.6
4248.8
4250
4251.2
4252.4
4253.59
4254.79
4255.99
4257.18
4258.38
4259.57
4260.76
4261.95
4263.14
4264.33
4265.51
4266.69
4267.87
4269.05
4270.22
4271.39
4272.55
4273.71
4274.86
4276.01
4277.14
4278.27
4279.4
4280.51
4281.61
4282.69
4283.77
4284.82
4285.86
4286.87
4287.87
4288.83
4289.77
4290.67
4291.53
4292.35
4293.12
4293.84
4294.49
4295.07
4295.57
4295.98
4296.29
4296.49
4296.55
4296.47
4296.22
4295.78
4295.12
4294.22
4293.04
4291.55
4289.7
4287.45
4284.74
4281.51
4277.69
4273.19
4267.94
4261.82
4254.73
4246.54
4237.11
4226.31
4213.96
4199.9
4183.96
4165.97
4145.78
4123.24
4098.26
4070.77
4040.79
4008.41
3973.82
3937.29
3899.18
3859.9
3819.85
3779.46
3739.09
3699.07
3659.67
3621.12
3583.64
3547.48
3512.85
3479.82
3448.36
3418.37
3389.69
3361.97
3334.65
3307.06
3278.52
3248.5
3216.65
3182.8
3147.04
3109.79
3071.53
3032.21
2990.74
2945.14
2893.43
2834.52
2768
2693.54
2611.65
2527.32
2447.84
2376.59
2307.99
2235.6
2159.81
2086.28
2019.86
1960.52
1904.01
1845.48
1779.24
1699.62
1605.85
1494.08
1349.23
1147.39
910.517
719.021
629.143
626.071
637.934
629.961
611.466
595.637
584.45
574.885
564.982
554.979
545.863
538.2
532.149
527.508
523.608
519.526
515.143
511.654
510.752
512.736
516.319
520.264
524.851
531.289
541.002
554.931
570.943
580.591
567.326
515.527
421.739
271.937
85.7968
1660.51
4165.06
4457.49
4208.62
4113.4
4128.38
4151.56
4158.58
4157.74
4157.01
4157.87
4159.33
4160.72
4161.96
4163.15
4164.35
4165.57
4166.79
4168
4169.21
4170.43
4171.64
4172.85
4174.06
4175.27
4176.48
4177.69
4178.9
4180.11
4181.32
4182.53
4183.73
4184.94
4186.15
4187.36
4188.57
4189.77
4190.98
4192.19
4193.39
4194.6
4195.81
4197.01
4198.22
4199.43
4200.63
4201.84
4203.05
4204.25
4205.46
4206.67
4207.87
4209.08
4210.28
4211.49
4212.7
4213.9
4215.11
4216.31
4217.52
4218.73
4219.93
4221.14
4222.34
4223.55
4224.75
4225.96
4227.16
4228.37
4229.57
4230.78
4231.98
4233.19
4234.39
4235.59
4236.8
4238
4239.2
4240.41
4241.61
4242.81
4244.01
4245.22
4246.42
4247.62
4248.82
4250.02
4251.22
4252.42
4253.61
4254.81
4256.01
4257.2
4258.4
4259.59
4260.78
4261.97
4263.15
4264.34
4265.52
4266.7
4267.87
4269.05
4270.21
4271.38
4272.54
4273.69
4274.83
4275.97
4277.1
4278.22
4279.33
4280.43
4281.51
4282.58
4283.64
4284.67
4285.68
4286.67
4287.63
4288.55
4289.45
4290.3
4291.11
4291.87
4292.57
4293.2
4293.77
4294.25
4294.64
4294.92
4295.09
4295.12
4295.01
4294.72
4294.25
4293.56
4292.63
4291.43
4289.91
4288.06
4285.81
4283.13
4279.95
4276.21
4271.86
4266.8
4260.97
4254.26
4246.58
4237.81
4227.85
4216.57
4203.84
4189.53
4173.52
4155.67
4135.87
4114.03
4090.09
4064.02
4035.83
4005.6
3973.45
3939.59
3904.24
3867.7
3830.28
3792.29
3754.02
3715.74
3677.7
3640.12
3603.22
3567.21
3532.24
3498.36
3465.53
3433.62
3402.43
3371.68
3341.04
3310.11
3278.52
3245.92
3212.01
3176.57
3139.46
3100.62
3060.03
3017.53
2972.72
2924.88
2873.24
2817.17
2756.31
2690.67
2620.81
2548.12
2474.19
2399.49
2322.77
2243.25
2162.88
2085.24
2012.58
1944.23
1877.13
1807.56
1732.52
1650.28
1560.69
1464.5
1362.39
1252.6
1136.52
1022.61
921.372
839.638
776.13
725.08
681.909
647.044
619.793
597.826
579.14
562.776
548.358
535.403
524.378
515.419
507.889
501.311
495.514
490.497
486.358
483.118
480.602
478.417
476.06
473.031
468.819
462.729
453.21
436.818
408.004
360.714
290.016
194.058
77.6565
1660.47
4165.02
4457.47
4208.61
4113.38
4128.36
4151.54
4158.56
4157.73
4157
4157.85
4159.32
4160.71
4161.95
4163.14
4164.34
4165.56
4166.78
4167.99
4169.2
4170.42
4171.63
4172.84
4174.05
4175.26
4176.47
4177.68
4178.89
4180.1
4181.31
4182.51
4183.72
4184.93
4186.14
4187.34
4188.55
4189.76
4190.97
4192.17
4193.38
4194.59
4195.79
4197
4198.21
4199.41
4200.62
4201.83
4203.03
4204.24
4205.45
4206.65
4207.86
4209.06
4210.27
4211.48
4212.68
4213.89
4215.09
4216.3
4217.5
4218.71
4219.92
4221.12
4222.33
4223.53
4224.74
4225.94
4227.15
4228.35
4229.56
4230.76
4231.97
4233.17
4234.38
4235.58
4236.78
4237.99
4239.19
4240.39
4241.6
4242.8
4244
4245.21
4246.41
4247.61
4248.81
4250.01
4251.21
4252.41
4253.6
4254.8
4256
4257.19
4258.39
4259.58
4260.77
4261.96
4263.15
4264.33
4265.51
4266.69
4267.86
4269.03
4270.2
4271.36
4272.52
4273.67
4274.81
4275.95
4277.07
4278.19
4279.29
4280.38
4281.46
4282.52
4283.56
4284.58
4285.58
4286.55
4287.49
4288.4
4289.27
4290.09
4290.87
4291.59
4292.25
4292.84
4293.35
4293.77
4294.09
4294.3
4294.39
4294.33
4294.1
4293.7
4293.1
4292.26
4291.17
4289.78
4288.08
4286
4283.52
4280.59
4277.13
4273.11
4268.45
4263.08
4256.92
4249.89
4241.89
4232.82
4222.59
4211.08
4198.18
4183.78
4167.78
4150.07
4130.56
4109.18
4085.88
4060.65
4033.49
4004.48
3973.71
3941.32
3907.52
3872.52
3836.57
3799.93
3762.85
3725.59
3688.38
3651.43
3614.94
3579.04
3543.85
3509.41
3475.69
3442.62
3410.04
3377.77
3345.55
3313.12
3280.16
3246.38
3211.5
3175.3
3137.56
3098.12
3056.81
3013.4
2967.57
2918.9
2866.95
2811.36
2751.97
2688.85
2622.39
2553.23
2482.26
2410.28
2337.8
2265.18
2192.93
2121.57
2051.21
1981.16
1910.1
1836.42
1758.58
1675.27
1585.52
1488.36
1384.5
1273.82
1157.59
1042.08
936.853
848.642
777.831
720.84
674.509
635.309
601.877
573.619
549.749
529.507
512.47
498.69
487.394
478.166
469.52
461.519
454.355
447.916
442.039
436.551
431.17
425.447
418.832
410.729
400.438
387.007
369.026
344.465
310.779
265.485
207.173
136.477
56.6972
1660.46
4165.02
4457.47
4208.61
4113.38
4128.36
4151.54
4158.56
4157.73
4157
4157.85
4159.32
4160.71
4161.95
4163.14
4164.34
4165.56
4166.78
4167.99
4169.21
4170.42
4171.63
4172.84
4174.06
4175.27
4176.48
4177.69
4178.9
4180.11
4181.31
4182.52
4183.73
4184.94
4186.15
4187.36
4188.56
4189.77
4190.98
4192.19
4193.39
4194.6
4195.81
4197.01
4198.22
4199.43
4200.64
4201.84
4203.05
4204.26
4205.46
4206.67
4207.87
4209.08
4210.29
4211.49
4212.7
4213.91
4215.11
4216.32
4217.52
4218.73
4219.93
4221.14
4222.35
4223.55
4224.76
4225.96
4227.17
4228.37
4229.58
4230.78
4231.99
4233.19
4234.4
4235.6
4236.81
4238.01
4239.21
4240.42
4241.62
4242.83
4244.03
4245.23
4246.43
4247.63
4248.84
4250.04
4251.24
4252.44
4253.63
4254.83
4256.03
4257.22
4258.42
4259.61
4260.8
4261.99
4263.17
4264.36
4265.54
4266.72
4267.89
4269.07
4270.23
4271.4
4272.55
4273.7
4274.85
4275.98
4277.11
4278.22
4279.33
4280.42
4281.49
4282.55
4283.59
4284.61
4285.61
4286.57
4287.51
4288.41
4289.28
4290.1
4290.87
4291.58
4292.23
4292.81
4293.3
4293.71
4294.01
4294.2
4294.26
4294.17
4293.92
4293.48
4292.84
4291.95
4290.81
4289.37
4287.6
4285.46
4282.9
4279.88
4276.33
4272.21
4267.45
4261.97
4255.7
4248.55
4240.44
4231.27
4220.94
4209.35
4196.38
4181.95
4165.95
4148.28
4128.86
4107.64
4084.55
4059.59
4032.78
4004.17
3973.86
3941.97
3908.69
3874.21
3838.76
3802.59
3765.94
3729.05
3692.14
3655.42
3619.06
3583.21
3547.97
3513.39
3479.44
3446.06
3413.11
3380.42
3347.75
3314.83
3281.39
3247.16
3211.86
3175.27
3137.18
3097.37
3055.65
3011.79
2965.5
2916.49
2864.44
2809.13
2750.49
2688.66
2623.96
2556.94
2488.27
2418.55
2348.16
2277.24
2205.89
2134.23
2062.4
1990.17
1916.8
1841.1
1761.72
1677.51
1587.82
1492.88
1392.18
1287.13
1180.96
1078.18
982.893
897.776
823.761
760.313
706.116
659.754
620.226
586.741
558.436
534.414
513.872
496.075
480.101
464.957
451.221
439.735
429.935
421.057
412.68
404.491
396.101
387.035
376.756
364.667
350.085
332.205
310.083
282.663
248.882
207.912
159.484
104.21
43.9219
1660.47
4165.02
4457.47
4208.61
4113.38
4128.36
4151.54
4158.56
4157.73
4157
4157.85
4159.32
4160.71
4161.95
4163.14
4164.34
4165.56
4166.78
4167.99
4169.2
4170.42
4171.63
4172.84
4174.05
4175.26
4176.47
4177.68
4178.89
4180.1
4181.31
4182.51
4183.72
4184.93
4186.14
4187.35
4188.55
4189.76
4190.97
4192.17
4193.38
4194.59
4195.8
4197
4198.21
4199.42
4200.62
4201.83
4203.03
4204.24
4205.45
4206.65
4207.86
4209.07
4210.27
4211.48
4212.68
4213.89
4215.1
4216.3
4217.51
4218.71
4219.92
4221.13
4222.33
4223.54
4224.74
4225.95
4227.15
4228.36
4229.56
4230.77
4231.98
4233.18
4234.39
4235.59
4236.8
4238
4239.2
4240.41
4241.61
4242.82
4244.02
4245.22
4246.43
4247.63
4248.83
4250.03
4251.23
4252.43
4253.63
4254.83
4256.03
4257.22
4258.42
4259.61
4260.81
4262
4263.19
4264.37
4265.56
4266.74
4267.92
4269.09
4270.26
4271.43
4272.59
4273.74
4274.89
4276.03
4277.16
4278.28
4279.39
4280.49
4281.57
4282.64
4283.69
4284.72
4285.72
4286.7
4287.65
4288.57
4289.45
4290.28
4291.07
4291.8
4292.47
4293.08
4293.6
4294.03
4294.37
4294.59
4294.69
4294.64
4294.43
4294.04
4293.45
4292.62
4291.54
4290.16
4288.46
4286.39
4283.9
4280.96
4277.5
4273.46
4268.77
4263.37
4257.17
4250.08
4242.02
4232.88
4222.57
4210.96
4197.95
4183.44
4167.32
4149.48
4129.84
4108.33
4084.91
4059.56
4032.31
4003.22
3972.39
3939.98
3906.17
3871.19
3835.28
3798.7
3761.7
3724.53
3687.43
3650.59
3614.22
3578.46
3543.41
3509.1
3475.51
3442.56
3410.09
3377.91
3345.77
3313.38
3280.44
3246.66
3211.76
3175.51
3137.71
3098.2
3056.8
3013.3
2967.35
2918.55
2866.49
2810.84
2751.53
2688.71
2622.83
2554.66
2485.21
2415.36
2345.63
2276.24
2207.44
2139.55
2072.59
2005.84
1937.89
1866.85
1790.79
1708.14
1617.82
1519.12
1411.55
1295.43
1173.06
1049.39
931.318
826.046
738.658
669.789
615.971
572.809
537.342
507.926
483.346
462.532
444.649
429.122
415.595
403.976
394.786
386.846
378.768
370.823
363.197
355.648
347.731
338.971
328.924
317.142
303.123
286.306
266.058
241.696
212.569
178.098
137.824
91.565
39.8231
1660.51
4165.06
4457.49
4208.62
4113.4
4128.38
4151.56
4158.58
4157.74
4157.01
4157.87
4159.33
4160.72
4161.96
4163.15
4164.35
4165.57
4166.79
4168
4169.21
4170.43
4171.64
4172.85
4174.06
4175.27
4176.48
4177.69
4178.9
4180.11
4181.32
4182.53
4183.73
4184.94
4186.15
4187.36
4188.57
4189.77
4190.98
4192.19
4193.4
4194.6
4195.81
4197.02
4198.22
4199.43
4200.64
4201.84
4203.05
4204.26
4205.46
4206.67
4207.88
4209.08
4210.29
4211.5
4212.7
4213.91
4215.12
4216.32
4217.53
4218.73
4219.94
4221.15
4222.35
4223.56
4224.76
4225.97
4227.17
4228.38
4229.59
4230.79
4232
4233.2
4234.41
4235.61
4236.82
4238.02
4239.23
4240.43
4241.64
4242.84
4244.05
4245.25
4246.45
4247.66
4248.86
4250.06
4251.26
4252.47
4253.67
4254.87
4256.07
4257.26
4258.46
4259.66
4260.85
4262.04
4263.24
4264.43
4265.61
4266.8
4267.98
4269.16
4270.33
4271.51
4272.67
4273.83
4274.99
4276.14
4277.28
4278.41
4279.53
4280.64
4281.74
4282.82
4283.89
4284.94
4285.97
4286.97
4287.95
4288.89
4289.81
4290.68
4291.51
4292.29
4293.02
4293.68
4294.27
4294.77
4295.19
4295.5
4295.7
4295.76
4295.67
4295.41
4294.97
4294.3
4293.39
4292.2
4290.71
4288.86
4286.61
4283.92
4280.72
4276.96
4272.56
4267.45
4261.54
4254.74
4246.94
4238.04
4227.92
4216.45
4203.51
4188.97
4172.7
4154.59
4134.52
4112.41
4088.2
4061.89
4033.49
4003.08
3970.81
3936.86
3901.49
3864.98
3827.64
3789.76
3751.64
3713.54
3675.69
3638.33
3601.68
3565.94
3531.25
3497.65
3465.09
3433.43
3402.46
3371.89
3341.38
3310.53