/*--------------------------------*- C++ -*----------------------------------*\
| =========                 |                                                 |
| \\      /  F ield         | OpenFOAM: The Open Source CFD Toolbox           |
|  \\    /   O peration     | Version:  2406                                  |
|   \\  /    A nd           | Website:  www.openfoam.com                      |
|    \\/     M anipulation  |                                                 |
\*---------------------------------------------------------------------------*/
FoamFile
{
    version     2.0;
    format      ascii;
    arch        "LSB;label=32;scalar=64";
    class       surfaceScalarField;
    location    "0.15";
    object      phi;
}
// * * * * * * * * * * * * * * * * * * * * * * * * * * * * * * * * * * * * * //

dimensions      [0 3 -1 0 0 0 0];

oriented        oriented;

internalField   nonuniform List<scalar> 
12225
(
2.10015e-05
1.48945e-08
2.09864e-05
1.51042e-08
2.09776e-05
8.8154e-09
2.09685e-05
9.12535e-09
2.09575e-05
1.10433e-08
2.09456e-05
1.18654e-08
2.09336e-05
1.20288e-08
2.09214e-05
1.21116e-08
2.09092e-05
1.22675e-08
2.08967e-05
1.24318e-08
2.08842e-05
1.2561e-08
2.08715e-05
1.26583e-08
2.08588e-05
1.27364e-08
2.0846e-05
1.28023e-08
2.08331e-05
1.28581e-08
2.08202e-05
1.29047e-08
2.08073e-05
1.29436e-08
2.07943e-05
1.29759e-08
2.07813e-05
1.30028e-08
2.07683e-05
1.3025e-08
2.07552e-05
1.30432e-08
2.07422e-05
1.30581e-08
2.07291e-05
1.30702e-08
2.0716e-05
1.308e-08
2.07029e-05
1.30882e-08
2.06898e-05
1.3095e-08
2.06767e-05
1.3101e-08
2.06636e-05
1.31063e-08
2.06505e-05
1.31114e-08
2.06374e-05
1.31162e-08
2.06243e-05
1.31209e-08
2.06112e-05
1.31256e-08
2.0598e-05
1.313e-08
2.05849e-05
1.31343e-08
2.05718e-05
1.31382e-08
2.05586e-05
1.31416e-08
2.05455e-05
1.31445e-08
2.05323e-05
1.31468e-08
2.05192e-05
1.31485e-08
2.0506e-05
1.31496e-08
2.04929e-05
1.315e-08
2.04797e-05
1.31499e-08
2.04666e-05
1.31493e-08
2.04534e-05
1.31484e-08
2.04403e-05
1.31471e-08
2.04271e-05
1.31456e-08
2.0414e-05
1.3144e-08
2.04009e-05
1.31423e-08
2.03877e-05
1.31405e-08
2.03746e-05
1.31387e-08
2.03614e-05
1.31369e-08
2.03483e-05
1.31349e-08
2.03352e-05
1.31329e-08
2.0322e-05
1.31308e-08
2.03089e-05
1.31286e-08
2.02958e-05
1.31262e-08
2.02827e-05
1.31236e-08
2.02695e-05
1.31209e-08
2.02564e-05
1.3118e-08
2.02433e-05
1.3115e-08
2.02302e-05
1.31119e-08
2.02171e-05
1.31088e-08
2.0204e-05
1.31057e-08
2.01909e-05
1.31026e-08
2.01778e-05
1.30997e-08
2.01647e-05
1.3097e-08
2.01516e-05
1.30945e-08
2.01385e-05
1.30922e-08
2.01254e-05
1.30903e-08
2.01123e-05
1.30886e-08
2.00992e-05
1.30871e-08
2.00861e-05
1.3086e-08
2.00731e-05
1.30851e-08
2.006e-05
1.30844e-08
2.00469e-05
1.30838e-08
2.00338e-05
1.30834e-08
2.00207e-05
1.30832e-08
2.00076e-05
1.3083e-08
1.99946e-05
1.3083e-08
1.99815e-05
1.30831e-08
1.99684e-05
1.30833e-08
1.99553e-05
1.30837e-08
1.99422e-05
1.30844e-08
1.99291e-05
1.30856e-08
1.99161e-05
1.30873e-08
1.9903e-05
1.30897e-08
1.98899e-05
1.30931e-08
1.98768e-05
1.30978e-08
1.98637e-05
1.31039e-08
1.98506e-05
1.3112e-08
1.98374e-05
1.31223e-08
1.98243e-05
1.31353e-08
1.98111e-05
1.31516e-08
1.9798e-05
1.31716e-08
1.97848e-05
1.31962e-08
1.97716e-05
1.32259e-08
1.97583e-05
1.32617e-08
1.9745e-05
1.33043e-08
1.97316e-05
1.3355e-08
1.97182e-05
1.34147e-08
1.97047e-05
1.34849e-08
1.96912e-05
1.35669e-08
1.96775e-05
1.36625e-08
1.96637e-05
1.37734e-08
1.96498e-05
1.39019e-08
1.96358e-05
1.40502e-08
1.96216e-05
1.4221e-08
1.96071e-05
1.44174e-08
1.95925e-05
1.46427e-08
1.95776e-05
1.49008e-08
1.95624e-05
1.51962e-08
1.95469e-05
1.55337e-08
1.95309e-05
1.5919e-08
1.95146e-05
1.63584e-08
1.94977e-05
1.68592e-08
1.94803e-05
1.74295e-08
1.94622e-05
1.80786e-08
1.94434e-05
1.88171e-08
1.94237e-05
1.96569e-08
1.94031e-05
2.06116e-08
1.93814e-05
2.16968e-08
1.93585e-05
2.29298e-08
1.93342e-05
2.43308e-08
1.93083e-05
2.59225e-08
1.92805e-05
2.77309e-08
1.92507e-05
2.97856e-08
1.92186e-05
3.21202e-08
1.91838e-05
3.47736e-08
1.91461e-05
3.77896e-08
1.91048e-05
4.1219e-08
1.90597e-05
4.51197e-08
1.90102e-05
4.95584e-08
1.89555e-05
5.46116e-08
1.88952e-05
6.03677e-08
1.88282e-05
6.69286e-08
1.87538e-05
7.44125e-08
1.86709e-05
8.29562e-08
1.85782e-05
9.2719e-08
1.84743e-05
1.03887e-07
1.83576e-05
1.16676e-07
1.82263e-05
1.31342e-07
1.80781e-05
1.48185e-07
1.79105e-05
1.67559e-07
1.77206e-05
1.89884e-07
1.7505e-05
2.1566e-07
1.72595e-05
2.45487e-07
1.69794e-05
2.80084e-07
1.66591e-05
3.20322e-07
1.62918e-05
3.67263e-07
1.58696e-05
4.22207e-07
1.53828e-05
4.86768e-07
1.48199e-05
5.62969e-07
1.41665e-05
6.53395e-07
1.34051e-05
7.61423e-07
1.25134e-05
8.91618e-07
1.1463e-05
1.05045e-06
1.02153e-05
1.2477e-06
8.7159e-06
1.49939e-06
6.87933e-06
1.83657e-06
4.5391e-06
2.34023e-06
2.08658e-06
2.45253e-06
9.11027e-07
1.17555e-06
5.99976e-07
3.11052e-07
4.71378e-07
1.28598e-07
3.91441e-07
7.9937e-08
3.3935e-07
5.20908e-08
3.11894e-07
2.74565e-08
3.01312e-07
1.05817e-08
2.98045e-07
3.26695e-09
2.92041e-07
6.00385e-09
2.80864e-07
1.11777e-08
2.70669e-07
1.01947e-08
2.668e-07
3.86873e-09
2.684e-07
-1.60002e-09
2.70943e-07
-2.5431e-09
2.70881e-07
6.28029e-11
2.70189e-07
6.91158e-10
2.71359e-07
-1.16925e-09
2.74005e-07
-2.64589e-09
2.76214e-07
-2.20897e-09
2.76166e-07
4.7432e-11
2.74222e-07
1.94445e-09
2.71885e-07
2.33673e-09
2.69939e-07
1.94551e-09
2.68242e-07
1.69734e-09
2.6656e-07
1.68233e-09
2.65115e-07
1.44453e-09
2.63831e-07
1.28407e-09
2.6187e-07
1.96134e-09
2.58044e-07
3.82613e-09
2.51689e-07
6.35428e-09
2.43371e-07
8.31799e-09
2.33828e-07
9.54325e-09
2.2317e-07
1.06582e-08
2.12898e-07
1.02722e-08
2.05107e-07
7.79095e-09
2.00259e-07
4.84818e-09
1.96808e-07
3.45097e-09
1.9202e-07
4.7879e-09
1.86405e-07
5.61523e-09
1.80979e-07
5.42515e-09
1.75982e-07
4.9976e-09
1.71532e-07
4.44981e-09
1.68e-07
3.53246e-09
1.65659e-07
2.34021e-09
1.63953e-07
1.7064e-09
1.6074e-07
3.21286e-09
1.54848e-07
5.89245e-09
1.46769e-07
8.07865e-09
1.36698e-07
1.00714e-08
1.24998e-07
1.16999e-08
1.16046e-07
8.95199e-09
1.14118e-07
1.92811e-09
1.17407e-07
-3.28943e-09
1.17342e-07
6.55109e-11
1.11347e-07
5.99425e-09
1.01978e-07
9.36971e-09
9.40057e-08
7.97186e-09
8.79082e-08
6.09752e-09
8.2402e-08
5.50624e-09
7.63875e-08
6.01452e-09
7.02933e-08
6.09416e-09
6.4848e-08
5.44534e-09
6.0329e-08
4.51896e-09
5.75006e-08
2.82843e-09
5.61651e-08
1.33546e-09
5.47039e-08
1.4612e-09
5.32833e-08
1.42064e-09
5.2442e-08
8.41238e-10
5.27249e-08
-2.82869e-10
5.40164e-08
-1.29152e-09
5.51196e-08
-1.1032e-09
5.53299e-08
-2.10249e-10
5.48509e-08
4.79008e-10
5.40768e-08
7.74054e-10
5.31133e-08
9.63534e-10
5.16412e-08
1.47205e-09
4.9386e-08
2.25526e-09
4.67306e-08
2.65532e-09
4.43216e-08
2.40909e-09
4.2246e-08
2.07553e-09
4.00198e-08
2.22622e-09
3.71822e-08
2.83763e-09
3.374e-08
3.44214e-09
2.98161e-08
3.9239e-09
2.4813e-08
5.00311e-09
1.74727e-08
7.34031e-09
6.48392e-09
1.09888e-08
-9.01152e-09
1.54954e-08
1.81738e-08
2.10513e-05
4.55941e-09
2.10589e-05
7.55239e-09
2.10587e-05
8.97924e-09
2.10592e-05
8.67005e-09
2.10613e-05
8.90893e-09
2.10636e-05
9.57247e-09
2.10655e-05
1.00907e-08
2.10672e-05
1.04293e-08
2.10688e-05
1.0693e-08
2.10703e-05
1.0928e-08
2.10717e-05
1.11339e-08
2.10731e-05
1.13074e-08
2.10743e-05
1.14532e-08
2.10756e-05
1.15776e-08
2.10767e-05
1.16851e-08
2.10779e-05
1.17783e-08
2.10789e-05
1.18594e-08
2.108e-05
1.19302e-08
2.1081e-05
1.19923e-08
2.1082e-05
1.20469e-08
2.10829e-05
1.20951e-08
2.10839e-05
1.21378e-08
2.10847e-05
1.21757e-08
2.10856e-05
1.22096e-08
2.10865e-05
1.224e-08
2.10873e-05
1.22675e-08
2.10881e-05
1.22925e-08
2.10889e-05
1.23155e-08
2.10897e-05
1.23367e-08
2.10904e-05
1.23565e-08
2.10912e-05
1.23751e-08
2.10919e-05
1.23927e-08
2.10926e-05
1.24094e-08
2.10933e-05
1.24254e-08
2.1094e-05
1.24406e-08
2.10947e-05
1.24552e-08
2.10954e-05
1.24691e-08
2.10961e-05
1.24825e-08
2.10967e-05
1.24952e-08
2.10974e-05
1.25074e-08
2.1098e-05
1.25191e-08
2.10986e-05
1.25302e-08
2.10992e-05
1.2541e-08
2.10998e-05
1.25513e-08
2.11004e-05
1.25613e-08
2.1101e-05
1.2571e-08
2.11015e-05
1.25804e-08
2.11021e-05
1.25897e-08
2.11026e-05
1.25988e-08
2.11032e-05
1.26078e-08
2.11037e-05
1.26166e-08
2.11042e-05
1.26254e-08
2.11047e-05
1.2634e-08
2.11052e-05
1.26426e-08
2.11057e-05
1.2651e-08
2.11061e-05
1.26594e-08
2.11066e-05
1.26677e-08
2.1107e-05
1.2676e-08
2.11075e-05
1.26842e-08
2.11079e-05
1.26924e-08
2.11083e-05
1.27006e-08
2.11087e-05
1.27088e-08
2.11091e-05
1.27171e-08
2.11095e-05
1.27254e-08
2.11098e-05
1.27339e-08
2.11102e-05
1.27426e-08
2.11105e-05
1.27515e-08
2.11108e-05
1.27606e-08
2.11112e-05
1.277e-08
2.11115e-05
1.27796e-08
2.11118e-05
1.27896e-08
2.11121e-05
1.28e-08
2.11123e-05
1.28107e-08
2.11126e-05
1.28218e-08
2.11128e-05
1.28334e-08
2.11131e-05
1.28455e-08
2.11133e-05
1.28582e-08
2.11135e-05
1.28716e-08
2.11137e-05
1.28858e-08
2.11139e-05
1.29008e-08
2.11141e-05
1.2917e-08
2.11142e-05
1.29343e-08
2.11143e-05
1.29532e-08
2.11145e-05
1.29739e-08
2.11146e-05
1.29967e-08
2.11146e-05
1.30219e-08
2.11147e-05
1.305e-08
2.11147e-05
1.30814e-08
2.11147e-05
1.31169e-08
2.11146e-05
1.31568e-08
2.11145e-05
1.32021e-08
2.11144e-05
1.32535e-08
2.11143e-05
1.3312e-08
2.11141e-05
1.33785e-08
2.11138e-05
1.34543e-08
2.11135e-05
1.35407e-08
2.11131e-05
1.36393e-08
2.11127e-05
1.37517e-08
2.11121e-05
1.38799e-08
2.11115e-05
1.40261e-08
2.11108e-05
1.41926e-08
2.111e-05
1.43824e-08
2.11091e-05
1.45986e-08
2.1108e-05
1.48446e-08
2.11068e-05
1.51247e-08
2.11054e-05
1.54433e-08
2.11038e-05
1.58056e-08
2.1102e-05
1.62175e-08
2.10999e-05
1.66856e-08
2.10976e-05
1.72175e-08
2.1095e-05
1.78215e-08
2.1092e-05
1.85074e-08
2.10887e-05
1.92862e-08
2.10849e-05
2.01701e-08
2.10805e-05
2.11733e-08
2.10757e-05
2.23117e-08
2.10701e-05
2.36034e-08
2.10639e-05
2.50689e-08
2.10568e-05
2.67316e-08
2.10488e-05
2.86178e-08
2.10397e-05
3.07577e-08
2.10295e-05
3.31855e-08
2.10179e-05
3.594e-08
2.10047e-05
3.90655e-08
2.09898e-05
4.26124e-08
2.0973e-05
4.66381e-08
2.09539e-05
5.12082e-08
2.09323e-05
5.63974e-08
2.09078e-05
6.22915e-08
2.088e-05
6.89882e-08
2.08485e-05
7.65998e-08
2.08128e-05
8.52551e-08
2.07723e-05
9.5102e-08
2.07264e-05
1.06311e-07
2.06743e-05
1.19079e-07
2.0615e-05
1.33634e-07
2.05477e-05
1.50238e-07
2.04713e-05
1.69198e-07
2.03843e-05
1.90871e-07
2.02853e-05
2.15674e-07
2.01725e-05
2.44094e-07
2.0044e-05
2.76707e-07
1.98974e-05
3.1419e-07
1.97299e-05
3.57348e-07
1.95384e-05
4.07137e-07
1.93192e-05
4.64706e-07
1.90679e-05
5.31432e-07
1.87792e-05
6.08989e-07
1.84471e-05
6.99418e-07
1.8064e-05
8.05237e-07
1.76212e-05
9.29576e-07
1.71078e-05
1.07639e-06
1.65105e-05
1.25072e-06
1.58127e-05
1.45919e-06
1.49937e-05
1.71058e-06
1.40272e-05
2.01698e-06
1.28794e-05
2.39551e-06
1.15073e-05
2.87149e-06
9.85952e-06
3.48434e-06
7.88624e-06
4.31352e-06
5.1889e-06
5.14986e-06
2.57806e-06
3.78639e-06
1.51309e-06
1.37602e-06
1.24309e-06
3.98601e-07
1.06873e-06
2.54293e-07
9.52691e-07
1.68129e-07
8.87212e-07
9.29359e-08
8.57523e-07
4.027e-08
8.45098e-07
1.5692e-08
8.14092e-07
3.70105e-08
7.74445e-07
5.08239e-08
7.45646e-07
3.89939e-08
7.32182e-07
1.7333e-08
7.28226e-07
2.35541e-09
7.28787e-07
-3.10356e-09
7.26548e-07
2.30171e-09
7.22387e-07
4.85246e-09
7.22095e-07
-8.7731e-10
7.25837e-07
-6.38785e-09
7.29707e-07
-6.07949e-09
7.30462e-07
-7.07489e-10
7.29284e-07
3.1228e-09
7.29247e-07
2.37382e-09
7.29745e-07
1.44762e-09
7.28337e-07
3.1053e-09
7.23842e-07
6.17651e-09
7.19383e-07
5.90421e-09
7.1697e-07
3.69636e-09
7.15096e-07
3.83567e-09
7.09427e-07
9.49546e-09
6.96748e-07
1.90332e-08
6.77673e-07
2.7393e-08
6.53472e-07
3.37437e-08
6.26599e-07
3.7532e-08
6.00491e-07
3.63794e-08
5.78367e-07
2.99157e-08
5.62816e-07
2.03988e-08
5.50205e-07
1.60624e-08
5.29184e-07
2.58091e-08
5.05319e-07
2.94802e-08
4.85637e-07
2.51063e-08
4.70377e-07
2.02576e-08
4.55991e-07
1.88358e-08
4.4546e-07
1.40636e-08
4.43086e-07
4.71459e-09
4.45877e-07
-1.08439e-09
4.35348e-07
1.37421e-08
4.11839e-07
2.94013e-08
3.87753e-07
3.21641e-08
3.66182e-07
3.16429e-08
3.40019e-07
3.78622e-08
3.15363e-07
3.36084e-08
3.0397e-07
1.33213e-08
3.05421e-07
-4.74034e-09
2.93114e-07
1.23726e-08
2.62578e-07
3.65294e-08
2.35136e-07
3.68122e-08
2.1688e-07
2.62281e-08
2.05144e-07
1.78334e-08
1.92299e-07
1.8351e-08
1.75544e-07
2.27696e-08
1.60969e-07
2.06688e-08
1.50398e-07
1.60171e-08
1.42148e-07
1.27684e-08
1.36732e-07
8.24513e-09
1.35044e-07
3.02313e-09
1.35581e-07
9.2427e-10
1.35663e-07
1.33795e-09
1.32336e-07
4.16825e-09
1.31245e-07
8.08304e-10
1.34408e-07
-4.45469e-09
1.37639e-07
-4.33391e-09
1.39542e-07
-2.11307e-09
1.41177e-07
-1.15611e-09
1.43614e-07
-1.66252e-09
1.46635e-07
-2.0577e-09
1.49217e-07
-1.11014e-09
1.50198e-07
1.27394e-09
1.49954e-07
2.90002e-09
1.50239e-07
2.12374e-09
1.51063e-07
1.25124e-09
1.50668e-07
2.62197e-09
1.47571e-07
5.93424e-09
1.42841e-07
8.17196e-09
1.37574e-07
9.19078e-09
1.31103e-07
1.14743e-08
1.20689e-07
1.77547e-08
1.03738e-07
2.79398e-08
7.98159e-08
3.94173e-08
4.81687e-08
2.10402e-05
3.43323e-09
2.10426e-05
5.21067e-09
2.10461e-05
5.49945e-09
2.10486e-05
6.14855e-09
2.10506e-05
6.90706e-09
2.10526e-05
7.59181e-09
2.10545e-05
8.13365e-09
2.10564e-05
8.55708e-09
2.10582e-05
8.90657e-09
2.10599e-05
9.20917e-09
2.10616e-05
9.47276e-09
2.10632e-05
9.69979e-09
2.10647e-05
9.89444e-09
2.10662e-05
1.00622e-08
2.10677e-05
1.02076e-08
2.10692e-05
1.03343e-08
2.10706e-05
1.0445e-08
2.1072e-05
1.05419e-08
2.10733e-05
1.0627e-08
2.10747e-05
1.0702e-08
2.1076e-05
1.07683e-08
2.10773e-05
1.0827e-08
2.10786e-05
1.08791e-08
2.10799e-05
1.09256e-08
2.10812e-05
1.09671e-08
2.10824e-05
1.10043e-08
2.10837e-05
1.10378e-08
2.10849e-05
1.1068e-08
2.10862e-05
1.10956e-08
2.10874e-05
1.11207e-08
2.10886e-05
1.11437e-08
2.10899e-05
1.1165e-08
2.10911e-05
1.11848e-08
2.10923e-05
1.12032e-08
2.10935e-05
1.12204e-08
2.10947e-05
1.12367e-08
2.1096e-05
1.1252e-08
2.10972e-05
1.12665e-08
2.10984e-05
1.12802e-08
2.10996e-05
1.12933e-08
2.11008e-05
1.13057e-08
2.1102e-05
1.13175e-08
2.11032e-05
1.13289e-08
2.11045e-05
1.13397e-08
2.11057e-05
1.13501e-08
2.11069e-05
1.13602e-08
2.11081e-05
1.13699e-08
2.11093e-05
1.13792e-08
2.11105e-05
1.13883e-08
2.11117e-05
1.13972e-08
2.11129e-05
1.14059e-08
2.11141e-05
1.14144e-08
2.11154e-05
1.14227e-08
2.11166e-05
1.14309e-08
2.11178e-05
1.1439e-08
2.1119e-05
1.1447e-08
2.11202e-05
1.1455e-08
2.11214e-05
1.14629e-08
2.11226e-05
1.14707e-08
2.11238e-05
1.14786e-08
2.11251e-05
1.14864e-08
2.11263e-05
1.14943e-08
2.11275e-05
1.15023e-08
2.11287e-05
1.15104e-08
2.11299e-05
1.15186e-08
2.11311e-05
1.1527e-08
2.11323e-05
1.15356e-08
2.11336e-05
1.15445e-08
2.11348e-05
1.15536e-08
2.1136e-05
1.15631e-08
2.11372e-05
1.1573e-08
2.11384e-05
1.15834e-08
2.11396e-05
1.15943e-08
2.11409e-05
1.16059e-08
2.11421e-05
1.16182e-08
2.11433e-05
1.16313e-08
2.11445e-05
1.16454e-08
2.11457e-05
1.16606e-08
2.11469e-05
1.16771e-08
2.11481e-05
1.16952e-08
2.11493e-05
1.1715e-08
2.11505e-05
1.1737e-08
2.11517e-05
1.17613e-08
2.11529e-05
1.17885e-08
2.11541e-05
1.18189e-08
2.11553e-05
1.1853e-08
2.11564e-05
1.18915e-08
2.11576e-05
1.1935e-08
2.11587e-05
1.19842e-08
2.11598e-05
1.20401e-08
2.11609e-05
1.21035e-08
2.1162e-05
1.21757e-08
2.1163e-05
1.22578e-08
2.11641e-05
1.23513e-08
2.11651e-05
1.24578e-08
2.1166e-05
1.25791e-08
2.11669e-05
1.27173e-08
2.11678e-05
1.28747e-08
2.11686e-05
1.30539e-08
2.11694e-05
1.3258e-08
2.11701e-05
1.34903e-08
2.11707e-05
1.37546e-08
2.11713e-05
1.40553e-08
2.11717e-05
1.43973e-08
2.11721e-05
1.47861e-08
2.11723e-05
1.5228e-08
2.11724e-05
1.57302e-08
2.11723e-05
1.63006e-08
2.1172e-05
1.69485e-08
2.11716e-05
1.7684e-08
2.11709e-05
1.85191e-08
2.11699e-05
1.94668e-08
2.11686e-05
2.05422e-08
2.1167e-05
2.17624e-08
2.11651e-05
2.31467e-08
2.11627e-05
2.47168e-08
2.11598e-05
2.64977e-08
2.11563e-05
2.85173e-08
2.11523e-05
3.08077e-08
2.11475e-05
3.34051e-08
2.11419e-05
3.63504e-08
2.11354e-05
3.96905e-08
2.11278e-05
4.34784e-08
2.11191e-05
4.77742e-08
2.11091e-05
5.26467e-08
2.10976e-05
5.81739e-08
2.10843e-05
6.44448e-08
2.10692e-05
7.15607e-08
2.10518e-05
7.96374e-08
2.1032e-05
8.88071e-08
2.10094e-05
9.9221e-08
2.09836e-05
1.11052e-07
2.09542e-05
1.245e-07
2.09207e-05
1.39792e-07
2.08826e-05
1.5719e-07
2.08392e-05
1.76998e-07
2.07899e-05
1.99566e-07
2.07338e-05
2.25297e-07
2.067e-05
2.54663e-07
2.05975e-05
2.88209e-07
2.0515e-05
3.26575e-07
2.04212e-05
3.70507e-07
2.03145e-05
4.20884e-07
2.01931e-05
4.78739e-07
2.00549e-05
5.45297e-07
1.98976e-05
6.22014e-07
1.97184e-05
7.10624e-07
1.95142e-05
8.13212e-07
1.92813e-05
9.32285e-07
1.90157e-05
1.07089e-06
1.87125e-05
1.23272e-06
1.83666e-05
1.42233e-06
1.7972e-05
1.64533e-06
1.75225e-05
1.90865e-06
1.70121e-05
2.22097e-06
1.6436e-05
2.59309e-06
1.5793e-05
3.0385e-06
1.50906e-05
3.57389e-06
1.43563e-05
4.21873e-06
1.36643e-05
5.0055e-06
1.29364e-05
5.8777e-06
1.0576e-05
6.14684e-06
7.02626e-06
4.92574e-06
3.7899e-06
3.63496e-06
2.05196e-06
1.99223e-06
1.62622e-06
5.93868e-07
1.57998e-06
1.3918e-07
1.4905e-06
1.29747e-07
1.39515e-06
1.11041e-07
1.22788e-06
2.04287e-07
1.13099e-06
1.47706e-07
1.08726e-06
8.27239e-08
1.08227e-06
2.23239e-08
1.10053e-06
-1.5904e-08
1.11865e-06
-2.12202e-08
1.08119e-06
3.97608e-08
1.05482e-06
3.12232e-08
1.04864e-06
5.30539e-09
1.05723e-06
-1.4978e-08
1.07326e-06
-2.21091e-08
1.08166e-06
-9.11112e-09
1.0821e-06
2.68624e-09
1.08513e-06
-6.58002e-10
1.09179e-06
-5.21672e-09
1.09753e-06
-2.62735e-09
1.09738e-06
6.32366e-09
1.09748e-06
5.80587e-09
1.10386e-06
-2.68196e-09
1.11334e-06
-5.64903e-09
1.11878e-06
4.05398e-09
1.11477e-06
2.30442e-08
1.09985e-06
4.23098e-08
1.07944e-06
5.41563e-08
1.0592e-06
5.77739e-08
1.03743e-06
5.81491e-08
1.01005e-06
5.72917e-08
9.80174e-07
5.02786e-08
9.50493e-07
4.57427e-08
9.24156e-07
5.21464e-08
9.00939e-07
5.26968e-08
8.82756e-07
4.32895e-08
8.62386e-07
4.06273e-08
8.3715e-07
4.40722e-08
8.23099e-07
2.81142e-08
8.00466e-07
2.73477e-08
7.71002e-07
2.83793e-08
7.48696e-07
3.60482e-08
7.34019e-07
4.40788e-08
7.27919e-07
3.8264e-08
7.30754e-07
2.88077e-08
6.87338e-07
8.12789e-08
6.23933e-07
9.70126e-08
5.80268e-07
5.69867e-08
5.58797e-07
1.67307e-08
5.51167e-07
2.00024e-08
5.15459e-07
7.22374e-08
4.68579e-07
8.3692e-08
4.28565e-07
6.62429e-08
3.90788e-07
5.56101e-08
3.46672e-07
6.2467e-08
2.92659e-07
7.67827e-08
2.52823e-07
6.05044e-08
2.23699e-07
4.51409e-08
1.95335e-07
4.11324e-08
1.82343e-07
2.12371e-08
1.81903e-07
3.4632e-09
1.91853e-07
-9.02595e-09
2.06233e-07
-1.3042e-08
2.15832e-07
-5.43072e-09
1.95852e-07
2.07884e-08
1.91461e-07
-6.38556e-11
1.87452e-07
-3.24284e-10
1.84338e-07
1.00118e-09
1.841e-07
-9.19022e-10
1.88239e-07
-5.80134e-09
1.96024e-07
-9.84191e-09
2.05682e-07
-1.07686e-08
2.14511e-07
-7.5555e-09
2.21206e-07
-3.79472e-09
2.28879e-07
-5.54953e-09
2.36784e-07
-6.65369e-09
2.41479e-07
-2.07307e-09
2.40944e-07
6.46919e-09
2.36488e-07
1.26287e-08
2.31714e-07
1.39641e-08
2.26786e-07
1.64026e-08
2.18215e-07
2.63257e-08
2.00106e-07
4.6049e-08
1.68221e-07
7.13019e-08
9.37454e-08
2.10464e-05
1.72094e-09
2.10482e-05
3.39023e-09
2.10493e-05
4.44287e-09
2.10504e-05
5.06761e-09
2.10516e-05
5.63952e-09
2.1053e-05
6.20469e-09
2.10544e-05
6.71218e-09
2.10559e-05
7.14169e-09
2.10573e-05
7.50652e-09
2.10586e-05
7.82316e-09
2.106e-05
8.10039e-09
2.10614e-05
8.34251e-09
2.10627e-05
8.55335e-09
2.1064e-05
8.73711e-09
2.10654e-05
8.89773e-09
2.10666e-05
9.03846e-09
2.10679e-05
9.16199e-09
2.10692e-05
9.2706e-09
2.10705e-05
9.36623e-09
2.10717e-05
9.45058e-09
2.1073e-05
9.5251e-09
2.10742e-05
9.59104e-09
2.10754e-05
9.64948e-09
2.10766e-05
9.70137e-09
2.10779e-05
9.74753e-09
2.10791e-05
9.78871e-09
2.10803e-05
9.82553e-09
2.10815e-05
9.85858e-09
2.10827e-05
9.88835e-09
2.10839e-05
9.9153e-09
2.10851e-05
9.93981e-09
2.10863e-05
9.9622e-09
2.10875e-05
9.98278e-09
2.10887e-05
1.00018e-08
2.10899e-05
1.00194e-08
2.10911e-05
1.00358e-08
2.10923e-05
1.00511e-08
2.10935e-05
1.00654e-08
2.10947e-05
1.00788e-08
2.10959e-05
1.00915e-08
2.10971e-05
1.01034e-08
2.10983e-05
1.01146e-08
2.10995e-05
1.01253e-08
2.11007e-05
1.01353e-08
2.1102e-05
1.01449e-08
2.11032e-05
1.0154e-08
2.11044e-05
1.01627e-08
2.11056e-05
1.01711e-08
2.11068e-05
1.01792e-08
2.1108e-05
1.0187e-08
2.11092e-05
1.01946e-08
2.11104e-05
1.0202e-08
2.11116e-05
1.02092e-08
2.11128e-05
1.02163e-08
2.11141e-05
1.02232e-08
2.11153e-05
1.02301e-08
2.11165e-05
1.02369e-08
2.11177e-05
1.02437e-08
2.11189e-05
1.02504e-08
2.11202e-05
1.0257e-08
2.11214e-05
1.02637e-08
2.11226e-05
1.02705e-08
2.11238e-05
1.02772e-08
2.11251e-05
1.02841e-08
2.11263e-05
1.02911e-08
2.11275e-05
1.02983e-08
2.11287e-05
1.03058e-08
2.113e-05
1.03135e-08
2.11312e-05
1.03215e-08
2.11324e-05
1.033e-08
2.11337e-05
1.03391e-08
2.11349e-05
1.03486e-08
2.11361e-05
1.03589e-08
2.11374e-05
1.03701e-08
2.11386e-05
1.03821e-08
2.11398e-05
1.03953e-08
2.11411e-05
1.04097e-08
2.11423e-05
1.04256e-08
2.11436e-05
1.04432e-08
2.11448e-05
1.04628e-08
2.1146e-05
1.04846e-08
2.11472e-05
1.05091e-08
2.11485e-05
1.05366e-08
2.11497e-05
1.05677e-08
2.11509e-05
1.06027e-08
2.11521e-05
1.06425e-08
2.11533e-05
1.06876e-08
2.11545e-05
1.07388e-08
2.11557e-05
1.07971e-08
2.11569e-05
1.08634e-08
2.1158e-05
1.0939e-08
2.11592e-05
1.10252e-08
2.11603e-05
1.11235e-08
2.11614e-05
1.12355e-08
2.11625e-05
1.13633e-08
2.11636e-05
1.1509e-08
2.11647e-05
1.16751e-08
2.11657e-05
1.18644e-08
2.11666e-05
1.20802e-08
2.11676e-05
1.23259e-08
2.11685e-05
1.26057e-08
2.11693e-05
1.29242e-08
2.11701e-05
1.32867e-08
2.11707e-05
1.3699e-08
2.11714e-05
1.41679e-08
2.11719e-05
1.47009e-08
2.11723e-05
1.53066e-08
2.11726e-05
1.59948e-08
2.11728e-05
1.67764e-08
2.11728e-05
1.7664e-08
2.11727e-05
1.86715e-08
2.11723e-05
1.9815e-08
2.11717e-05
2.11126e-08
2.11709e-05
2.25847e-08
2.11698e-05
2.42545e-08
2.11684e-05
2.61484e-08
2.11666e-05
2.8296e-08
2.11644e-05
3.0731e-08
2.11617e-05
3.34918e-08
2.11585e-05
3.66215e-08
2.11547e-05
4.01693e-08
2.11502e-05
4.41908e-08
2.11449e-05
4.87492e-08
2.11387e-05
5.39162e-08
2.11316e-05
5.97731e-08
2.11234e-05
6.64124e-08
2.11139e-05
7.39391e-08
2.1103e-05
8.24726e-08
2.10905e-05
9.21489e-08
2.10761e-05
1.03123e-07
2.10598e-05
1.1557e-07
2.10412e-05
1.29693e-07
2.10199e-05
1.4572e-07
2.09958e-05
1.63914e-07
2.09684e-05
1.84575e-07
2.09374e-05
2.08049e-07
2.09022e-05
2.34729e-07
2.08624e-05
2.6507e-07
2.08175e-05
2.99595e-07
2.07668e-05
3.38906e-07
2.07097e-05
3.83701e-07
2.06454e-05
4.34786e-07
2.05732e-05
4.93098e-07
2.04922e-05
5.59726e-07
2.04016e-05
6.35938e-07
2.03004e-05
7.23218e-07
2.01877e-05
8.233e-07
2.00627e-05
9.3822e-07
1.99246e-05
1.07036e-06
1.97729e-05
1.22254e-06
1.96076e-05
1.39803e-06
1.94293e-05
1.6007e-06
1.92396e-05
1.83501e-06
1.90421e-05
2.10615e-06
1.88431e-05
2.41994e-06
1.86534e-05
2.78284e-06
1.84902e-05
3.20162e-06
1.83813e-05
3.68286e-06
1.83684e-05
4.23162e-06
1.85201e-05
4.85374e-06
1.88748e-05
5.52308e-06
1.90504e-05
5.97117e-06
1.79588e-05
6.01739e-06
1.54472e-05
6.14659e-06
1.18366e-05
5.60283e-06
8.16624e-06
4.26419e-06
5.18046e-06
3.12496e-06
3.24564e-06
2.06457e-06
2.13315e-06
1.22352e-06
1.61124e-06
7.26206e-07
1.48993e-06
2.69008e-07
1.58782e-06
-1.51648e-08
1.6202e-06
-1.00533e-08
1.56559e-06
3.8701e-08
1.48104e-06
6.33316e-08
1.31792e-06
2.02888e-07
1.27687e-06
7.22652e-08
1.27513e-06
7.04888e-09
1.27993e-06
-1.97812e-08
1.26554e-06
-7.71881e-09
1.26155e-06
-5.12111e-09
1.32473e-06
-6.04894e-08
1.37771e-06
-5.3642e-08
1.39687e-06
-2.43779e-08
1.42239e-06
-2.81412e-08
1.41105e-06
1.76566e-08
1.38929e-06
2.75739e-08
1.40065e-06
-1.40455e-08
1.4375e-06
-4.25005e-08
1.48622e-06
-4.46641e-08
1.51247e-06
-3.20385e-09
1.50868e-06
4.60958e-08
1.49319e-06
6.96439e-08
1.48997e-06
6.09933e-08
1.49084e-06
5.7286e-08
1.47844e-06
6.96902e-08
1.46598e-06
6.27341e-08
1.46436e-06
4.73632e-08
1.47491e-06
4.16002e-08
1.48303e-06
4.45746e-08
1.46743e-06
5.88862e-08
1.43494e-06
7.3122e-08
1.41218e-06
6.68352e-08
1.40042e-06
3.9872e-08
1.38797e-06
3.97999e-08
1.38206e-06
3.42883e-08
1.39518e-06
2.2927e-08
1.40277e-06
3.64839e-08
1.34686e-06
9.41828e-08
1.31786e-06
5.78067e-08
1.36553e-06
3.36002e-08
1.34098e-06
1.21563e-07
1.30077e-06
9.71966e-08
1.25823e-06
5.92729e-08
1.23844e-06
3.97944e-08
1.22594e-06
8.47404e-08
1.21852e-06
9.11137e-08
1.18366e-06
1.01102e-07
1.07879e-06
1.60474e-07
9.81281e-07
1.59978e-07
8.97359e-07
1.60705e-07
7.61096e-07
1.96767e-07
5.0431e-07
3.01927e-07
2.99244e-07
2.46199e-07
2.64331e-07
5.61495e-08
2.47281e-07
2.05131e-08
2.55077e-07
-1.68218e-08
2.77337e-07
-3.53014e-08
3.18337e-07
-4.64316e-08
3.40429e-07
-1.30326e-09
2.25258e-07
1.15107e-07
1.92064e-07
3.28698e-08
1.8909e-07
3.9754e-09
1.8924e-07
-1.0694e-09
1.86101e-07
-2.66202e-09
1.82017e-07
-5.75781e-09
1.92164e-07
-2.09154e-08
2.1692e-07
-3.23117e-08
2.52619e-07
-3.9494e-08
2.76446e-07
-2.93766e-08
2.94184e-07
-2.43918e-08
3.07881e-07
-1.57693e-08
3.06174e-07
8.17531e-09
2.97548e-07
2.12548e-08
2.91666e-07
1.9846e-08
2.87631e-07
2.04382e-08
2.78563e-07
3.53932e-08
2.51761e-07
7.28512e-08
2.0084e-07
1.22223e-07
1.69661e-07
2.10451e-05
1.87373e-09
2.10454e-05
3.05925e-09
2.10465e-05
3.35276e-09
2.10477e-05
3.88347e-09
2.10489e-05
4.46987e-09
2.10501e-05
4.99905e-09
2.10513e-05
5.45453e-09
2.10526e-05
5.85078e-09
2.10539e-05
6.20047e-09
2.10552e-05
6.51089e-09
2.10566e-05
6.78619e-09
2.10579e-05
7.02958e-09
2.10592e-05
7.24435e-09
2.10605e-05
7.43381e-09
2.10618e-05
7.60108e-09
2.10631e-05
7.74888e-09
2.10643e-05
7.87958e-09
2.10656e-05
7.99524e-09
2.10669e-05
8.09766e-09
2.10682e-05
8.18846e-09
2.10694e-05
8.26903e-09
2.10707e-05
8.3406e-09
2.10719e-05
8.40425e-09
2.10731e-05
8.46094e-09
2.10744e-05
8.51149e-09
2.10756e-05
8.55664e-09
2.10768e-05
8.59706e-09
2.10781e-05
8.63331e-09
2.10793e-05
8.66592e-09
2.10805e-05
8.69533e-09
2.10817e-05
8.72195e-09
2.10829e-05
8.74613e-09
2.10842e-05
8.76818e-09
2.10854e-05
8.78836e-09
2.10866e-05
8.80689e-09
2.10878e-05
8.82398e-09
2.1089e-05
8.83979e-09
2.10902e-05
8.85445e-09
2.10914e-05
8.8681e-09
2.10926e-05
8.88082e-09
2.10938e-05
8.89272e-09
2.10951e-05
8.90386e-09
2.10963e-05
8.91433e-09
2.10975e-05
8.92417e-09
2.10987e-05
8.93346e-09
2.10999e-05
8.94225e-09
2.11011e-05
8.95058e-09
2.11023e-05
8.95851e-09
2.11035e-05
8.96608e-09
2.11048e-05
8.97334e-09
2.1106e-05
8.98031e-09
2.11072e-05
8.98704e-09
2.11084e-05
8.99355e-09
2.11096e-05
8.99988e-09
2.11108e-05
9.00605e-09
2.11121e-05
9.01209e-09
2.11133e-05
9.01801e-09
2.11145e-05
9.02385e-09
2.11157e-05
9.02963e-09
2.11169e-05
9.03538e-09
2.11182e-05
9.04111e-09
2.11194e-05
9.04686e-09
2.11206e-05
9.05266e-09
2.11218e-05
9.05855e-09
2.11231e-05
9.06457e-09
2.11243e-05
9.07077e-09
2.11255e-05
9.07719e-09
2.11267e-05
9.08391e-09
2.1128e-05
9.09098e-09
2.11292e-05
9.09849e-09
2.11304e-05
9.10652e-09
2.11317e-05
9.11517e-09
2.11329e-05
9.12456e-09
2.11341e-05
9.13482e-09
2.11354e-05
9.1461e-09
2.11366e-05
9.15858e-09
2.11378e-05
9.17246e-09
2.11391e-05
9.18795e-09
2.11403e-05
9.20533e-09
2.11416e-05
9.22491e-09
2.11428e-05
9.24701e-09
2.1144e-05
9.27206e-09
2.11453e-05
9.30048e-09
2.11465e-05
9.33282e-09
2.11477e-05
9.36967e-09
2.1149e-05
9.41169e-09
2.11502e-05
9.45967e-09
2.11514e-05
9.51448e-09
2.11526e-05
9.57713e-09
2.11539e-05
9.64875e-09
2.11551e-05
9.73064e-09
2.11563e-05
9.82426e-09
2.11575e-05
9.93128e-09
2.11586e-05
1.00536e-08
2.11598e-05
1.01933e-08
2.1161e-05
1.03529e-08
2.11621e-05
1.05351e-08
2.11632e-05
1.0743e-08
2.11643e-05
1.09801e-08
2.11654e-05
1.12505e-08
2.11665e-05
1.15586e-08
2.11675e-05
1.19097e-08
2.11684e-05
1.23094e-08
2.11694e-05
1.27643e-08
2.11703e-05
1.32819e-08
2.11711e-05
1.38706e-08
2.11719e-05
1.45399e-08
2.11726e-05
1.53005e-08
2.11732e-05
1.61646e-08
2.11737e-05
1.7146e-08
2.11741e-05
1.82604e-08
2.11744e-05
1.95254e-08
2.11745e-05
2.09609e-08
2.11745e-05
2.25895e-08
2.11744e-05
2.4437e-08
2.1174e-05
2.65322e-08
2.11734e-05
2.89079e-08
2.11725e-05
3.16012e-08
2.11713e-05
3.46542e-08
2.11698e-05
3.81144e-08
2.1168e-05
4.20356e-08
2.11657e-05
4.64788e-08
2.11629e-05
5.15129e-08
2.11596e-05
5.72162e-08
2.11557e-05
6.36772e-08
2.11511e-05
7.09962e-08
2.11458e-05
7.92868e-08
2.11396e-05
8.8678e-08
2.11324e-05
9.93159e-08
2.11242e-05
1.11366e-07
2.11147e-05
1.25017e-07
2.11039e-05
1.40481e-07
2.10916e-05
1.58002e-07
2.10777e-05
1.77855e-07
2.10619e-05
2.00352e-07
2.10441e-05
2.2585e-07
2.10241e-05
2.54754e-07
2.10016e-05
2.87525e-07
2.09766e-05
3.24688e-07
2.09486e-05
3.66843e-07
2.09176e-05
4.14672e-07
2.08835e-05
4.68954e-07
2.0846e-05
5.30577e-07
2.08052e-05
6.00556e-07
2.07611e-05
6.80048e-07
2.07139e-05
7.7037e-07
2.06642e-05
8.73022e-07
2.06127e-05
9.89707e-07
2.05607e-05
1.12235e-06
2.05101e-05
1.27311e-06
2.04638e-05
1.4444e-06
2.04256e-05
1.63887e-06
2.04012e-05
1.85937e-06
2.03985e-05
2.10888e-06
2.04281e-05
2.39034e-06
2.05045e-05
2.70644e-06
2.06469e-05
3.05919e-06
2.08804e-05
3.44943e-06
2.12362e-05
3.87579e-06
2.17554e-05
4.33455e-06
2.24677e-05
4.81077e-06
2.32169e-05
5.22197e-06
2.37547e-05
5.47963e-06
2.43034e-05
5.59787e-06
2.44828e-05
5.42338e-06
2.37113e-05
5.0357e-06
2.21878e-05
4.64852e-06
1.99718e-05
4.28056e-06
1.72309e-05
3.96443e-06
1.43213e-05
3.63575e-06
1.1434e-05
3.15633e-06
8.67439e-06
2.74444e-06
6.35862e-06
2.30572e-06
4.69124e-06
1.70608e-06
3.5547e-06
1.19987e-06
2.70979e-06
1.0478e-06
2.04435e-06
7.37704e-07
1.67799e-06
3.73415e-07
1.51521e-06
1.42991e-07
1.47908e-06
2.84168e-08
1.53779e-06
-6.38322e-08
1.61537e-06
-1.3807e-07
1.58347e-06
-2.1737e-08
1.5492e-06
9.88881e-09
1.58555e-06
-6.44889e-08
1.74408e-06
-1.40876e-07
1.86107e-06
-8.94132e-08
1.87954e-06
-3.25203e-08
1.83127e-06
5.77357e-09
1.6655e-06
1.21099e-07
1.92307e-06
-2.60773e-07
1.87406e-06
9.51053e-08
1.88705e-06
5.66581e-08
1.9304e-06
1.76375e-08
1.9969e-06
-9.20447e-09
1.9525e-06
1.14081e-07
1.93622e-06
7.90173e-08
1.96438e-06
1.92048e-08
2.02694e-06
-2.09652e-08
2.0855e-06
-1.3979e-08
2.04173e-06
1.02659e-07
2.02037e-06
9.44774e-08
2.02745e-06
5.97508e-08
2.05022e-06
1.7108e-08
2.10745e-06
-1.74274e-08
2.17905e-06
-3.73164e-08
2.19759e-06
4.38455e-09
2.22833e-06
5.74342e-09
2.27338e-06
4.91377e-08
2.31866e-06
1.2522e-08
2.39481e-06
-4.25503e-08
2.41516e-06
1.01217e-07
2.40564e-06
1.06718e-07
2.37952e-06
8.53912e-08
2.36315e-06
5.6164e-08
2.42815e-06
1.9738e-08
2.53762e-06
-1.83554e-08
2.69835e-06
-5.96286e-08
2.83485e-06
2.39785e-08
2.96647e-06
2.83604e-08
3.10139e-06
2.57768e-08