/*--------------------------------*- C++ -*----------------------------------*\
| =========                 |                                                 |
| \\      /  F ield         | OpenFOAM: The Open Source CFD Toolbox           |
|  \\    /   O peration     | Version:  2406                                  |
|   \\  /    A nd           | Website:  www.openfoam.com                      |
|    \\/     M anipulation  |                                                 |
\*---------------------------------------------------------------------------*/
FoamFile
{
    version     2.0;
    format      ascii;
    arch        "LSB;label=32;scalar=64";
    class       volVectorField;
    location    "0.15";
    object      U;
}
// * * * * * * * * * * * * * * * * * * * * * * * * * * * * * * * * * * * * * //

dimensions      [0 1 -1 0 0 0 0];

internalField   nonuniform List<vector> 
6250
(
(64.4391 0.0200963 0)
(21.1526 0.0194346 0)
(20.5467 0.0149288 0)
(25.894 0.0152141 0)
(27.152 0.0173092 0)
(26.5829 0.0190327 0)
(26.1397 0.0200113 0)
(26.0678 0.0206958 0)
(26.1149 0.0213307 0)
(26.1353 0.0219227 0)
(26.1216 0.0224399 0)
(26.0994 0.0228836 0)
(26.0806 0.0232707 0)
(26.0648 0.0236148 0)
(26.0493 0.0239231 0)
(26.0335 0.0242001 0)
(26.0173 0.0244496 0)
(26.001 0.0246751 0)
(25.9848 0.0248796 0)
(25.9685 0.0250657 0)
(25.9522 0.0252358 0)
(25.9359 0.0253918 0)
(25.9196 0.0255359 0)
(25.9032 0.0256699 0)
(25.8869 0.0257953 0)
(25.8705 0.0259136 0)
(25.8541 0.026026 0)
(25.8377 0.0261334 0)
(25.8214 0.0262364 0)
(25.805 0.0263353 0)
(25.7886 0.0264304 0)
(25.7722 0.0265215 0)
(25.7558 0.0266085 0)
(25.7393 0.026691 0)
(25.7229 0.026769 0)
(25.7065 0.0268422 0)
(25.6901 0.0269104 0)
(25.6736 0.0269737 0)
(25.6572 0.0270323 0)
(25.6408 0.0270863 0)
(25.6243 0.027136 0)
(25.6079 0.0271818 0)
(25.5914 0.0272242 0)
(25.575 0.0272635 0)
(25.5586 0.0273001 0)
(25.5421 0.0273342 0)
(25.5257 0.0273663 0)
(25.5093 0.0273964 0)
(25.4929 0.0274247 0)
(25.4764 0.0274512 0)
(25.46 0.0274759 0)
(25.4436 0.0274989 0)
(25.4272 0.02752 0)
(25.4108 0.0275393 0)
(25.3943 0.0275567 0)
(25.3779 0.0275722 0)
(25.3615 0.027586 0)
(25.3451 0.0275979 0)
(25.3287 0.0276083 0)
(25.3123 0.0276172 0)
(25.2959 0.0276248 0)
(25.2796 0.0276313 0)
(25.2632 0.0276369 0)
(25.2468 0.0276419 0)
(25.2304 0.0276464 0)
(25.214 0.0276505 0)
(25.1977 0.0276543 0)
(25.1813 0.027658 0)
(25.1649 0.0276615 0)
(25.1486 0.0276647 0)
(25.1322 0.0276677 0)
(25.1159 0.0276703 0)
(25.0995 0.0276723 0)
(25.0831 0.0276737 0)
(25.0668 0.0276742 0)
(25.0504 0.0276737 0)
(25.0341 0.027672 0)
(25.0177 0.0276691 0)
(25.0014 0.0276647 0)
(24.985 0.0276589 0)
(24.9687 0.0276516 0)
(24.9523 0.027643 0)
(24.936 0.027633 0)
(24.9196 0.0276219 0)
(24.9032 0.0276099 0)
(24.8869 0.0275973 0)
(24.8705 0.0275845 0)
(24.8541 0.0275718 0)
(24.8378 0.0275597 0)
(24.8214 0.0275489 0)
(24.805 0.0275399 0)
(24.7886 0.0275334 0)
(24.7722 0.0275303 0)
(24.7557 0.0275313 0)
(24.7392 0.0275374 0)
(24.7227 0.0275497 0)
(24.7062 0.0275694 0)
(24.6896 0.0275976 0)
(24.6729 0.0276359 0)
(24.6562 0.0276857 0)
(24.6394 0.027749 0)
(24.6225 0.0278275 0)
(24.6054 0.0279235 0)
(24.5883 0.0280395 0)
(24.571 0.0281781 0)
(24.5535 0.0283424 0)
(24.5359 0.0285359 0)
(24.518 0.0287625 0)
(24.4998 0.0290266 0)
(24.4814 0.0293331 0)
(24.4626 0.0296876 0)
(24.4434 0.0300965 0)
(24.4237 0.0305671 0)
(24.4036 0.0311073 0)
(24.3828 0.0317266 0)
(24.3614 0.0324352 0)
(24.3393 0.0332453 0)
(24.3162 0.0341703 0)
(24.2922 0.0352255 0)
(24.2671 0.0364284 0)
(24.2407 0.037799 0)
(24.2128 0.0393598 0)
(24.1833 0.0411366 0)
(24.152 0.0431589 0)
(24.1185 0.0454602 0)
(24.0826 0.0480788 0)
(24.044 0.0510585 0)
(24.0023 0.0544494 0)
(23.9571 0.0583089 0)
(23.9078 0.0627031 0)
(23.854 0.0677078 0)
(23.795 0.0734101 0)
(23.7301 0.079911 0)
(23.6584 0.0873267 0)
(23.5791 0.0957924 0)
(23.491 0.105465 0)
(23.393 0.116527 0)
(23.2836 0.129193 0)
(23.1611 0.143712 0)
(23.0238 0.16038 0)
(22.8693 0.179546 0)
(22.6953 0.201622 0)
(22.4987 0.227102 0)
(22.2762 0.256576 0)
(22.0238 0.290754 0)
(21.7369 0.330499 0)
(21.4099 0.376861 0)
(21.0365 0.431129 0)
(20.609 0.494902 0)
(20.1182 0.570179 0)
(19.5534 0.659485 0)
(18.9014 0.766066 0)
(18.1464 0.894158 0)
(17.2689 1.04945 0)
(16.2448 1.23984 0)
(15.0435 1.47693 0)
(13.6255 1.77903 0)
(11.945 2.17829 0)
(9.74822 2.74525 0)
(7.88457 3.68369 0)
(4.43497 3.16905 0)
(0.95943 1.26787 0)
(0.840297 0.490292 0)
(0.667843 0.175792 0)
(0.528929 0.0653382 0)
(0.448986 0.0311882 0)
(0.401458 0.00623578 0)
(0.380145 -0.0103264 0)
(0.373749 -0.0133441 0)
(0.369127 -0.00314834 0)
(0.358208 0.0062675 0)
(0.343864 0.00760929 0)
(0.334642 0.0046234 0)
(0.333848 0.00175642 0)
(0.337147 0.000181978 0)
(0.338739 -0.000100685 0)
(0.338013 -0.000777592 0)
(0.338217 -0.00219063 0)
(0.340858 -0.00336897 0)
(0.344207 -0.00339374 0)
(0.345583 -0.00264364 0)
(0.344245 -0.00239397 0)
(0.341352 -0.0029531 0)
(0.338609 -0.00338069 0)
(0.336349 -0.0030653 0)
(0.334242 -0.00260897 0)
(0.332329 -0.00253765 0)
(0.330767 -0.00259218 0)
(0.328993 -0.00227812 0)
(0.325569 -0.00104748 0)
(0.319248 0.000826864 0)
(0.310073 0.00236095 0)
(0.298374 0.00301359 0)
(0.28517 0.00292622 0)
(0.272284 0.00192109 0)
(0.260843 -0.000369994 0)
(0.252923 -0.00181539 0)
(0.248004 0.0006732 0)
(0.2431 0.00635884 0)
(0.23667 0.00943891 0)
(0.229689 0.00759623 0)
(0.222949 0.00301641 0)
(0.216846 -0.00219706 0)
(0.211852 -0.00760012 0)
(0.208454 -0.0118404 0)
(0.206255 -0.0102714 0)
(0.203593 -0.00200397 0)
(0.197776 0.00522436 0)
(0.188984 0.00674052 0)
(0.177241 0.00395627 0)
(0.163209 0.00108102 0)
(0.149384 -0.0037669 0)
(0.142612 -0.00947798 0)
(0.144704 -0.0105016 0)
(0.147694 -0.00265705 0)
(0.143987 0.00522857 0)
(0.133605 0.00596886 0)
(0.122191 0.00233591 0)
(0.113414 -0.000817601 0)
(0.106398 -0.00139921 0)
(0.0991903 -0.000572835 0)
(0.0915074 -2.56177e-05 0)
(0.0842011 0.000227695 0)
(0.0778669 0.000443433 0)
(0.0733539 0.00047507 0)
(0.0707392 0.00033905 0)
(0.0690038 0.000472365 0)
(0.0673989 0.000594618 0)
(0.0659919 0.00130756 0)
(0.0655635 0.000954793 0)
(0.0666323 6.22504e-05 0)
(0.0682959 0.000154538 0)
(0.0691848 0.000941133 0)
(0.0689849 0.00167044 0)
(0.068167 0.00210888 0)
(0.0670964 0.00248783 0)
(0.0656051 0.00305119 0)
(0.063243 0.00372842 0)
(0.0600704 0.00402464 0)
(0.0568469 0.00366521 0)
(0.0541252 0.00310547 0)
(0.051574 0.00287178 0)
(0.0484208 0.00297986 0)
(0.044507 0.00306931 0)
(0.0400132 0.00298551 0)
(0.0347155 0.00352315 0)
(0.0272126 0.00517763 0)
(0.0154127 0.00809467 0)
(0.00249739 0.0113566 0)
(-0.0292364 0.014297 0)
(64.5081 0.0308699 0)
(21.2555 0.0418114 0)
(20.6326 0.0351459 0)
(25.9929 0.03325 0)
(27.272 0.035228 0)
(26.7223 0.0372068 0)
(26.2965 0.0380864 0)
(26.2416 0.0384323 0)
(26.3057 0.0387062 0)
(26.3434 0.0389801 0)
(26.3472 0.0392026 0)
(26.3426 0.0393551 0)
(26.3413 0.0394531 0)
(26.343 0.0395145 0)
(26.3451 0.0395498 0)
(26.3467 0.0395639 0)
(26.3481 0.0395607 0)
(26.3494 0.0395434 0)
(26.3506 0.039515 0)
(26.3519 0.0394774 0)
(26.3531 0.0394326 0)
(26.3542 0.0393818 0)
(26.3554 0.0393265 0)
(26.3565 0.0392679 0)
(26.3576 0.039207 0)
(26.3586 0.0391449 0)
(26.3596 0.0390826 0)
(26.3606 0.0390209 0)
(26.3616 0.0389606 0)
(26.3626 0.038902 0)
(26.3635 0.0388457 0)
(26.3644 0.0387918 0)
(26.3653 0.0387404 0)
(26.3662 0.0386913 0)
(26.3671 0.0386444 0)
(26.368 0.0385993 0)
(26.3688 0.0385558 0)
(26.3697 0.0385137 0)
(26.3705 0.0384726 0)
(26.3713 0.0384324 0)
(26.3721 0.0383929 0)
(26.3729 0.0383542 0)
(26.3736 0.0383162 0)
(26.3744 0.0382789 0)
(26.3751 0.0382426 0)
(26.3759 0.0382073 0)
(26.3766 0.0381731 0)
(26.3773 0.03814 0)
(26.3779 0.0381082 0)
(26.3786 0.0380777 0)
(26.3793 0.0380486 0)
(26.3799 0.0380206 0)
(26.3806 0.0379938 0)
(26.3812 0.0379682 0)
(26.3818 0.0379435 0)
(26.3824 0.0379198 0)
(26.3829 0.0378969 0)
(26.3835 0.0378748 0)
(26.3841 0.0378534 0)
(26.3846 0.0378326 0)
(26.3851 0.0378127 0)
(26.3856 0.0377935 0)
(26.3861 0.0377752 0)
(26.3866 0.0377577 0)
(26.387 0.0377414 0)
(26.3875 0.0377262 0)
(26.3879 0.0377122 0)
(26.3884 0.0376996 0)
(26.3888 0.0376885 0)
(26.3892 0.0376789 0)
(26.3895 0.0376708 0)
(26.3899 0.0376644 0)
(26.3903 0.0376596 0)
(26.3906 0.0376564 0)
(26.3909 0.0376549 0)
(26.3912 0.0376551 0)
(26.3915 0.037657 0)
(26.3918 0.0376606 0)
(26.392 0.037666 0)
(26.3923 0.0376734 0)
(26.3925 0.0376829 0)
(26.3927 0.0376949 0)
(26.3929 0.0377096 0)
(26.393 0.0377274 0)
(26.3931 0.0377489 0)
(26.3932 0.0377748 0)
(26.3933 0.0378057 0)
(26.3933 0.0378426 0)
(26.3934 0.0378865 0)
(26.3933 0.0379386 0)
(26.3932 0.0380003 0)
(26.3931 0.0380731 0)
(26.3929 0.0381589 0)
(26.3927 0.0382596 0)
(26.3924 0.0383777 0)
(26.3921 0.0385157 0)
(26.3916 0.0386765 0)
(26.3911 0.0388635 0)
(26.3905 0.0390805 0)
(26.3898 0.0393316 0)
(26.389 0.0396217 0)
(26.388 0.0399562 0)
(26.3869 0.0403411 0)
(26.3857 0.0407835 0)
(26.3843 0.041291 0)
(26.3826 0.0418726 0)
(26.3808 0.0425381 0)
(26.3787 0.0432989 0)
(26.3763 0.0441678 0)
(26.3736 0.0451591 0)
(26.3705 0.0462895 0)
(26.367 0.0475773 0)
(26.3631 0.0490436 0)
(26.3586 0.0507124 0)
(26.3535 0.0526105 0)
(26.3478 0.0547688 0)
(26.3413 0.0572219 0)
(26.334 0.0600095 0)
(26.3257 0.0631763 0)
(26.3163 0.0667732 0)
(26.3057 0.0708583 0)
(26.2936 0.0754972 0)
(26.28 0.0807649 0)
(26.2646 0.0867467 0)
(26.2471 0.0935397 0)
(26.2274 0.101255 0)
(26.205 0.110018 0)
(26.1796 0.119974 0)
(26.1509 0.131288 0)
(26.1184 0.144148 0)
(26.0815 0.158773 0)
(26.0396 0.17541 0)
(25.9922 0.194346 0)
(25.9384 0.215911 0)
(25.8773 0.240486 0)
(25.8079 0.268511 0)
(25.7292 0.300497 0)
(25.6397 0.33704 0)
(25.5379 0.37883 0)
(25.4221 0.426677 0)
(25.2903 0.481532 0)
(25.1402 0.544511 0)
(24.9689 0.616935 0)
(24.7735 0.700369 0)
(24.5501 0.796681 0)
(24.2947 0.908104 0)
(24.002 1.03733 0)
(23.6662 1.18763 0)
(23.2802 1.36298 0)
(22.8357 1.56831 0)
(22.3226 1.80975 0)
(21.7288 2.09506 0)
(21.0395 2.43423 0)
(20.2363 2.84042 0)
(19.2966 3.33146 0)
(18.192 3.93254 0)
(16.8862 4.68081 0)
(15.3419 5.63444 0)
(13.4179 6.89253 0)
(11.3964 8.67486 0)
(9.63912 10.0488 0)
(3.44295 4.70938 0)
(2.16088 1.11626 0)
(1.68256 0.503968 0)
(1.40465 0.346766 0)
(1.25498 0.233979 0)
(1.14345 0.136173 0)
(1.08592 0.0685886 0)
(1.06181 0.0331493 0)
(1.03536 0.0367536 0)
(0.993526 0.0518308 0)
(0.948312 0.0428799 0)
(0.919958 0.0130326 0)
(0.910687 -0.011426 0)
(0.910965 -0.0147087 0)
(0.910065 0.000570639 0)
(0.904983 0.00491539 0)
(0.901696 -0.00319729 0)
(0.904437 -0.0104175 0)
(0.909993 -0.00815621 0)
(0.913198 0.00300874 0)
(0.912677 0.0134039 0)
(0.911542 0.0162996 0)
(0.911966 0.0145766 0)
(0.911657 0.0127115 0)
(0.907968 0.0119387 0)
(0.901999 0.0105139 0)
(0.897639 0.00970985 0)
(0.895671 0.0129912 0)
(0.891985 0.0214573 0)
(0.880902 0.0324433 0)
(0.860663 0.0407831 0)
(0.832785 0.0459975 0)
(0.799709 0.0513845 0)
(0.766186 0.0505931 0)
(0.73718 0.0414015 0)
(0.713542 0.0282534 0)
(0.693907 0.0178009 0)
(0.673555 0.0159319 0)
(0.646851 0.0152679 0)
(0.620146 0.0161881 0)
(0.596763 0.0197922 0)
(0.577791 0.0255495 0)
(0.56256 0.0274218 0)
(0.556818 0.0261868 0)
(0.555318 0.0211604 0)
(0.550664 0.0202993 0)
(0.530619 0.0220476 0)
(0.502553 0.0299798 0)
(0.472208 0.0434386 0)
(0.440321 0.0603061 0)
(0.407334 0.0527866 0)
(0.386404 0.0209905 0)
(0.381065 -0.00426695 0)
(0.374512 0.00290051 0)
(0.349719 0.021688 0)
(0.311804 0.0388469 0)
(0.281178 0.0396624 0)
(0.262766 0.0340879 0)
(0.247843 0.0316121 0)
(0.229973 0.0331832 0)
(0.209866 0.0327553 0)
(0.193696 0.0290833 0)
(0.181702 0.0241107 0)
(0.172885 0.0149173 0)
(0.169339 0.00696051 0)
(0.169323 0.00765601 0)
(0.169249 0.00708563 0)
(0.16733 0.00248013 0)
(0.164756 -0.00259915 0)
(0.165688 -0.00678247 0)
(0.169805 -0.00552784 0)
(0.173199 -0.00188334 0)
(0.17538 0.000740365 0)
(0.17787 0.00155967 0)
(0.181427 0.00200866 0)
(0.185123 0.0039095 0)
(0.187322 0.00726036 0)
(0.187639 0.00943211 0)
(0.187583 0.00875839 0)
(0.188597 0.00769956 0)
(0.189141 0.00875515 0)
(0.186943 0.011798 0)
(0.182005 0.0146113 0)
(0.175714 0.0171283 0)
(0.168719 0.0219665 0)
(0.158954 0.0321179 0)
(0.143049 0.0475378 0)
(0.118392 0.0654779 0)
(0.0691722 0.0777368 0)
(64.4983 0.00339892 0)
(21.2306 0.0058578 0)
(20.6148 0.00775798 0)
(25.9799 0.00975243 0)
(27.2595 0.0117307 0)
(26.7089 0.0134058 0)
(26.2826 0.014712 0)
(26.2278 0.0157514 0)
(26.2923 0.0166417 0)
(26.3303 0.017431 0)
(26.3343 0.0181267 0)
(26.33 0.0187343 0)
(26.3291 0.0192668 0)
(26.3311 0.0197382 0)
(26.3336 0.020159 0)
(26.3356 0.0205367 0)
(26.3374 0.0208774 0)
(26.3391 0.0211861 0)
(26.3408 0.0214673 0)
(26.3425 0.0217248 0)
(26.3442 0.0219617 0)
(26.3458 0.0221806 0)
(26.3474 0.0223836 0)
(26.3491 0.0225726 0)
(26.3507 0.0227493 0)
(26.3522 0.0229149 0)
(26.3538 0.0230706 0)
(26.3554 0.0232174 0)
(26.3569 0.0233562 0)
(26.3585 0.0234877 0)
(26.36 0.0236126 0)
(26.3616 0.0237315 0)
(26.3631 0.023845 0)
(26.3646 0.0239535 0)
(26.3661 0.0240575 0)
(26.3677 0.0241573 0)
(26.3692 0.0242535 0)
(26.3707 0.0243461 0)
(26.3722 0.0244357 0)
(26.3738 0.0245223 0)
(26.3753 0.0246063 0)
(26.3768 0.0246878 0)
(26.3783 0.024767 0)
(26.3798 0.024844 0)
(26.3813 0.024919 0)
(26.3828 0.0249921 0)
(26.3844 0.0250634 0)
(26.3859 0.025133 0)
(26.3874 0.0252009 0)
(26.3889 0.0252673 0)
(26.3904 0.0253322 0)
(26.3919 0.0253957 0)
(26.3934 0.025458 0)
(26.395 0.025519 0)
(26.3965 0.0255789 0)
(26.398 0.0256378 0)
(26.3995 0.0256957 0)
(26.401 0.0257529 0)
(26.4025 0.0258093 0)
(26.404 0.0258652 0)
(26.4056 0.0259205 0)
(26.4071 0.0259754 0)
(26.4086 0.02603 0)
(26.4101 0.0260843 0)
(26.4116 0.0261384 0)
(26.4132 0.0261923 0)
(26.4147 0.0262462 0)
(26.4162 0.0263001 0)
(26.4177 0.026354 0)
(26.4192 0.026408 0)
(26.4208 0.0264622 0)
(26.4223 0.0265167 0)
(26.4238 0.0265716 0)
(26.4253 0.0266271 0)
(26.4268 0.0266834 0)
(26.4284 0.0267407 0)
(26.4299 0.0267994 0)
(26.4314 0.0268598 0)
(26.4329 0.0269224 0)
(26.4344 0.0269876 0)
(26.4359 0.0270561 0)
(26.4374 0.0271286 0)
(26.4389 0.0272059 0)
(26.4404 0.0272889 0)
(26.4419 0.0273786 0)
(26.4433 0.0274764 0)
(26.4448 0.0275834 0)
(26.4462 0.0277013 0)
(26.4477 0.0278317 0)
(26.4491 0.0279767 0)
(26.4505 0.0281385 0)
(26.4518 0.0283195 0)
(26.4531 0.0285225 0)
(26.4544 0.0287507 0)
(26.4557 0.0290078 0)
(26.4569 0.0292977 0)
(26.4581 0.029625 0)
(26.4592 0.0299948 0)
(26.4603 0.0304131 0)
(26.4613 0.0308864 0)
(26.4622 0.0314221 0)
(26.4631 0.0320288 0)
(26.4638 0.0327158 0)
(26.4644 0.0334942 0)
(26.4649 0.0343761 0)
(26.4653 0.0353753 0)
(26.4655 0.0365076 0)
(26.4655 0.0377908 0)
(26.4652 0.0392449 0)
(26.4648 0.040893 0)
(26.4641 0.0427607 0)
(26.463 0.0448775 0)
(26.4617 0.0472766 0)
(26.4599 0.0499957 0)
(26.4577 0.0530774 0)
(26.455 0.0565703 0)
(26.4517 0.0605294 0)
(26.4477 0.0650169 0)
(26.443 0.0701037 0)
(26.4375 0.0758702 0)
(26.4311 0.0824076 0)
(26.4235 0.0898197 0)
(26.4148 0.0982244 0)
(26.4047 0.107756 0)
(26.393 0.118567 0)
(26.3796 0.130832 0)
(26.3642 0.144749 0)
(26.3465 0.160544 0)
(26.3262 0.178477 0)
(26.3031 0.198843 0)
(26.2767 0.221981 0)
(26.2465 0.24828 0)
(26.2122 0.278186 0)
(26.173 0.312214 0)
(26.1284 0.350954 0)
(26.0777 0.39509 0)
(26.02 0.445415 0)
(25.9543 0.502847 0)
(25.8797 0.568454 0)
(25.7948 0.643483 0)
(25.6983 0.729393 0)
(25.5886 0.827897 0)
(25.4638 0.941013 0)
(25.3218 1.07113 0)
(25.1603 1.22108 0)
(24.9764 1.39425 0)
(24.767 1.59471 0)
(24.5285 1.82735 0)
(24.2566 2.09811 0)
(23.9466 2.41429 0)
(23.5931 2.78483 0)
(23.1897 3.22091 0)
(22.7297 3.73653 0)
(22.2057 4.34953 0)
(21.6103 5.08287 0)
(20.937 5.96654 0)
(20.1823 7.04033 0)
(19.3562 8.35804 0)
(18.4474 9.99317 0)
(17.558 12.0814 0)
(16.7759 14.4146 0)
(15.0171 14.0255 0)
(12.4857 6.84626 0)
(5.58731 2.06082 0)
(2.83904 0.878866 0)
(2.1957 0.552298 0)
(2.0053 0.316318 0)
(1.93049 0.127238 0)
(1.82988 0.0430705 0)
(1.61693 0.139483 0)
(1.45297 0.194363 0)
(1.38214 0.148304 0)
(1.35244 0.0783153 0)
(1.36418 0.0264086 0)
(1.38893 0.00285395 0)
(1.37624 0.0108978 0)
(1.33672 0.017701 0)
(1.31186 -0.00174186 0)
(1.31449 -0.0207024 0)
(1.32976 -0.0206714 0)
(1.34511 -0.00698128 0)
(1.35273 -0.00050823 0)
(1.35548 -0.00728938 0)
(1.36178 -0.00953581 0)
(1.36897 0.000304356 0)
(1.37224 0.0181658 0)
(1.37113 0.0206161 0)
(1.37471 0.00786324 0)
(1.38592 0.0039054 0)
(1.39682 0.0221011 0)
(1.39878 0.0598891 0)
(1.38666 0.0991479 0)
(1.36378 0.128768 0)
(1.33758 0.142447 0)
(1.30894 0.136401 0)
(1.27859 0.110918 0)
(1.24684 0.0762186 0)
(1.20944 0.0689389 0)
(1.17031 0.120597 0)
(1.14022 0.142531 0)
(1.1128 0.118492 0)
(1.08862 0.0874451 0)
(1.06253 0.0686294 0)
(1.03547 0.0387704 0)
(1.01112 -0.00708801 0)
(0.99074 -0.0295919 0)
(0.947079 0.0379217 0)
(0.92456 0.125357 0)
(0.915472 0.140484 0)
(0.91463 0.123343 0)
(0.886824 0.123729 0)
(0.819063 0.105471 0)
(0.762021 0.0467812 0)
(0.73079 -0.0117239 0)
(0.688042 0.0761606 0)
(0.654702 0.168849 0)
(0.610482 0.13849 0)
(0.565023 0.0834289 0)
(0.515062 0.0488182 0)
(0.461799 0.0540657 0)
(0.397977 0.0747469 0)
(0.339717 0.0664596 0)
(0.294775 0.0490426 0)
(0.257738 0.0374861 0)
(0.233625 0.0246245 0)
(0.224809 0.00843421 0)
(0.230852 -0.00361764 0)
(0.251927 0.000206359 0)
(0.267974 0.0213491 0)
(0.257963 0.00703105 0)
(0.241886 -0.0148681 0)
(0.234814 -0.0167628 0)
(0.231423 -0.00955312 0)
(0.229501 -0.00718261 0)
(0.232126 -0.010412 0)
(0.239795 -0.0126331 0)
(0.250594 -0.00975325 0)
(0.261742 -0.0014033 0)
(0.272497 0.00405098 0)
(0.281736 0.000888845 0)
(0.291508 -0.00216795 0)
(0.299941 0.00342788 0)
(0.302982 0.017201 0)
(0.299478 0.0267346 0)
(0.293261 0.0287957 0)
(0.28713 0.0344994 0)
(0.28024 0.055253 0)
(0.265902 0.0909795 0)
(0.235417 0.131854 0)
(0.165685 0.166224 0)
(64.5083 0.00804182 0)
(21.2428 0.0142363 0)
(20.6188 0.0168091 0)
(25.9819 0.0187192 0)
(27.2611 0.0205139 0)
(26.71 0.022185 0)
(26.2829 0.0236262 0)
(26.2274 0.0248204 0)
(26.2913 0.0258168 0)
(26.329 0.0266647 0)
(26.3326 0.0273919 0)
(26.3279 0.0280134 0)
(26.3267 0.028543 0)
(26.3285 0.028994 0)
(26.3307 0.0293788 0)
(26.3326 0.0297072 0)
(26.3342 0.0299874 0)
(26.3357 0.0302261 0)
(26.3373 0.0304292 0)
(26.3389 0.0306014 0)
(26.3404 0.030747 0)
(26.342 0.0308696 0)
(26.3435 0.0309721 0)
(26.345 0.0310574 0)
(26.3466 0.0311279 0)
(26.3481 0.0311856 0)
(26.3496 0.0312324 0)
(26.3511 0.0312701 0)
(26.3526 0.0313001 0)
(26.3541 0.0313236 0)
(26.3556 0.0313419 0)
(26.3572 0.0313558 0)
(26.3587 0.0313661 0)
(26.3602 0.0313733 0)
(26.3617 0.0313781 0)
(26.3632 0.0313807 0)
(26.3647 0.0313814 0)
(26.3662 0.0313805 0)
(26.3677 0.031378 0)
(26.3692 0.0313741 0)
(26.3707 0.0313689 0)
(26.3722 0.0313626 0)
(26.3737 0.0313552 0)
(26.3752 0.0313469 0)
(26.3767 0.0313378 0)
(26.3782 0.0313281 0)
(26.3797 0.0313178 0)
(26.3812 0.0313073 0)
(26.3827 0.0312965 0)
(26.3842 0.0312856 0)
(26.3857 0.0312747 0)
(26.3873 0.0312638 0)
(26.3888 0.0312531 0)
(26.3903 0.0312425 0)
(26.3918 0.0312321 0)
(26.3933 0.0312219 0)
(26.3949 0.031212 0)
(26.3964 0.0312022 0)
(26.3979 0.0311927 0)
(26.3994 0.0311835 0)
(26.401 0.0311746 0)
(26.4025 0.0311661 0)
(26.404 0.031158 0)
(26.4056 0.0311505 0)
(26.4071 0.0311436 0)
(26.4086 0.0311375 0)
(26.4102 0.0311323 0)
(26.4117 0.0311282 0)
(26.4132 0.0311253 0)
(26.4148 0.0311239 0)
(26.4163 0.0311241 0)
(26.4179 0.0311262 0)
(26.4194 0.0311304 0)
(26.4209 0.031137 0)
(26.4225 0.0311462 0)
(26.424 0.0311584 0)
(26.4256 0.031174 0)
(26.4271 0.0311934 0)
(26.4287 0.031217 0)
(26.4302 0.0312455 0)
(26.4318 0.0312795 0)
(26.4333 0.0313198 0)
(26.4348 0.0313672 0)
(26.4363 0.0314228 0)
(26.4379 0.0314877 0)
(26.4394 0.0315634 0)
(26.4409 0.0316514 0)
(26.4424 0.0317534 0)
(26.4439 0.0318716 0)
(26.4454 0.0320083 0)
(26.4468 0.0321661 0)
(26.4483 0.0323482 0)
(26.4497 0.032558 0)
(26.4511 0.0327994 0)
(26.4525 0.0330768 0)
(26.4539 0.0333955 0)
(26.4552 0.033761 0)
(26.4565 0.0341799 0)
(26.4577 0.0346597 0)
(26.4589 0.0352085 0)
(26.46 0.0358359 0)
(26.4611 0.0365526 0)
(26.4621 0.0373706 0)
(26.463 0.0383037 0)
(26.4638 0.0393673 0)
(26.4646 0.040579 0)
(26.4652 0.0419587 0)
(26.4656 0.0435289 0)
(26.4659 0.0453149 0)
(26.4661 0.0473457 0)
(26.466 0.0496538 0)
(26.4657 0.0522761 0)
(26.4651 0.0552547 0)
(26.4642 0.0586368 0)
(26.463 0.0624761 0)
(26.4615 0.0668335 0)
(26.4595 0.0717781 0)
(26.457 0.0773879 0)
(26.4539 0.0837516 0)
(26.4503 0.0909699 0)
(26.4459 0.0991568 0)
(26.4407 0.108442 0)
(26.4346 0.118972 0)
(26.4275 0.130914 0)
(26.4193 0.144458 0)
(26.4097 0.159821 0)
(26.3987 0.177247 0)
(26.386 0.197016 0)
(26.3714 0.219449 0)
(26.3547 0.244908 0)
(26.3356 0.27381 0)
(26.3138 0.30663 0)
(26.289 0.343912 0)
(26.2607 0.386282 0)
(26.2286 0.434454 0)
(26.1922 0.489254 0)
(26.151 0.551632 0)
(26.1043 0.622685 0)
(26.0515 0.703682 0)
(25.992 0.796095 0)
(25.9248 0.901635 0)
(25.8492 1.0223 0)
(25.7641 1.16042 0)
(25.6687 1.31873 0)
(25.5617 1.50046 0)
(25.4422 1.7094 0)
(25.3089 1.95005 0)
(25.1608 2.22775 0)
(24.9969 2.5489 0)
(24.8163 2.92109 0)
(24.6187 3.35349 0)
(24.4045 3.85705 0)
(24.175 4.44498 0)
(23.9334 5.13314 0)
(23.6859 5.9405 0)
(23.4429 6.88958 0)
(23.2213 8.00674 0)
(23.0504 9.32207 0)
(22.9664 10.8667 0)
(23.0389 12.686 0)
(23.387 14.7136 0)
(23.5747 15.9749 0)
(23.4213 15.8089 0)
(21.6072 15.0451 0)
(17.788 10.4743 0)
(12.8225 3.69508 0)
(7.38579 0.791181 0)
(4.52512 0.216938 0)
(3.60238 -0.00925701 0)
(2.19582 0.215774 0)
(1.87569 0.424587 0)
(1.95616 0.233142 0)
(2.03104 0.0216156 0)
(2.0191 -0.118826 0)
(1.95784 -0.130987 0)
(1.70403 0.120773 0)
(1.61988 0.130351 0)
(1.60604 0.0295834 0)
(1.59596 -0.0486883 0)
(1.58393 -0.0771828 0)
(1.53063 -0.0124376 0)
(1.63133 0.037221 0)
(1.70799 0.00610435 0)
(1.73614 -0.0121375 0)
(1.76154 -0.0112291 0)
(1.77018 0.0105692 0)
(1.75336 0.00374466 0)
(1.74213 -0.0231338 0)
(1.77209 -0.0285388 0)
(1.82507 0.00242661 0)
(1.87454 0.0578289 0)
(1.89275 0.103964 0)
(1.87984 0.127943 0)
(1.86576 0.131149 0)
(1.86286 0.138955 0)
(1.85434 0.169945 0)
(1.83798 0.168619 0)
(1.83203 0.146694 0)
(1.8389 0.127412 0)
(1.84872 0.109078 0)
(1.84896 0.106306 0)
(1.81992 0.141061 0)
(1.76684 0.166361 0)
(1.75609 0.108877 0)
(1.73787 0.15719 0)
(1.74361 0.185433 0)
(1.73737 0.164182 0)
(1.74395 0.113946 0)
(1.73148 0.0590713 0)
(1.70226 0.0307818 0)
(1.66167 0.259844 0)
(1.67003 0.361111 0)
(1.65096 0.218892 0)
(1.62899 0.0791654 0)
(1.60136 0.03249 0)
(1.59612 0.289718 0)
(1.43179 0.393518 0)
(1.4709 0.324659 0)
(1.41958 0.284188 0)
(1.3295 0.324967 0)
(1.18656 0.37681 0)
(1.04045 0.269738 0)
(0.775257 0.150894 0)
(0.462805 0.122145 0)
(0.339333 0.0731056 0)
(0.315341 0.0069125 0)
(0.312882 -0.0437668 0)
(0.324117 -0.0685781 0)
(0.348959 -0.0573525 0)
(0.448187 0.0660657 0)
(0.353382 -0.000775316 0)
(0.252966 -0.00113897 0)
(0.23483 0.00141633 0)
(0.236714 -0.00451166 0)
(0.235387 -0.0166491 0)
(0.230236 -0.0214555 0)
(0.231748 -0.0221805 0)
(0.244685 -0.0174804 0)
(0.297089 -0.0140842 0)
(0.335139 -0.0263943 0)
(0.359607 -0.0304867 0)
(0.378251 -0.0143229 0)
(0.384763 0.0134553 0)
(0.378811 0.0342782 0)
(0.370246 0.0421003 0)
(0.364067 0.0491616 0)
(0.356583 0.0780103 0)
(0.33776 0.140112 0)
(0.296414 0.226021 0)
(0.174101 0.308052 0)
(64.5081 0.00345125 0)
(21.2394 0.00606499 0)
(20.6151 0.00724696 0)
(25.9786 0.00838435 0)
(27.2578 0.00960401 0)
(26.7064 0.0107756 0)
(26.2791 0.0118076 0)
(26.2234 0.0126937 0)
(26.2872 0.0134642 0)
(26.3247 0.0141447 0)
(26.3283 0.0147482 0)
(26.3236 0.0152817 0)
(26.3223 0.0157521 0)
(26.324 0.0161675 0)
(26.3263 0.0165351 0)
(26.3281 0.0168613 0)
(26.3297 0.0171515 0)
(26.3312 0.0174103 0)
(26.3328 0.0176417 0)
(26.3344 0.0178494 0)
(26.336 0.0180364 0)
(26.3375 0.0182052 0)
(26.3391 0.0183581 0)
(26.3407 0.0184972 0)
(26.3422 0.0186241 0)
(26.3437 0.0187402 0)
(26.3453 0.0188469 0)
(26.3468 0.0189452 0)
(26.3483 0.0190361 0)
(26.3499 0.0191206 0)
(26.3514 0.0191993 0)
(26.3529 0.019273 0)
(26.3544 0.0193422 0)
(26.356 0.0194076 0)
(26.3575 0.0194695 0)
(26.359 0.0195283 0)
(26.3605 0.0195845 0)
(26.362 0.0196384 0)
(26.3635 0.0196901 0)
(26.365 0.01974 0)
(26.3666 0.0197882 0)
(26.3681 0.0198349 0)
(26.3696 0.0198802 0)
(26.3711 0.0199243 0)
(26.3726 0.0199672 0)
(26.3741 0.0200091 0)
(26.3756 0.02005 0)
(26.3772 0.0200899 0)
(26.3787 0.0201291 0)
(26.3802 0.0201676 0)
(26.3817 0.0202053 0)
(26.3832 0.0202425 0)
(26.3847 0.0202791 0)
(26.3863 0.0203153 0)
(26.3878 0.020351 0)
(26.3893 0.0203864 0)
(26.3908 0.0204216 0)
(26.3924 0.0204565 0)
(26.3939 0.0204913 0)
(26.3954 0.020526 0)
(26.3969 0.0205607 0)
(26.3985 0.0205955 0)
(26.4 0.0206303 0)
(26.4015 0.0206653 0)
(26.4031 0.0207006 0)
(26.4046 0.0207363 0)
(26.4061 0.0207724 0)
(26.4077 0.0208091 0)
(26.4092 0.0208465 0)
(26.4107 0.0208847 0)
(26.4123 0.0209241 0)
(26.4138 0.0209647 0)
(26.4154 0.0210068 0)
(26.4169 0.0210508 0)
(26.4184 0.021097 0)
(26.42 0.0211459 0)
(26.4215 0.0211978 0)
(26.4231 0.0212535 0)
(26.4246 0.0213136 0)
(26.4262 0.0213787 0)
(26.4277 0.0214499 0)
(26.4293 0.021528 0)
(26.4308 0.0216142 0)
(26.4324 0.0217099 0)
(26.4339 0.0218164 0)
(26.4354 0.0219355 0)
(26.437 0.0220691 0)
(26.4385 0.0222194 0)
(26.44 0.0223887 0)
(26.4416 0.0225799 0)
(26.4431 0.0227961 0)
(26.4446 0.0230409 0)
(26.4461 0.0233184 0)
(26.4476 0.0236331 0)
(26.449 0.0239901 0)
(26.4505 0.0243954 0)
(26.4519 0.0248556 0)
(26.4533 0.0253782 0)
(26.4547 0.0259718 0)
(26.4561 0.0266459 0)
(26.4574 0.0274116 0)
(26.4587 0.028281 0)
(26.46 0.0292683 0)
(26.4612 0.0303893 0)
(26.4623 0.0316617 0)
(26.4634 0.0331061 0)
(26.4644 0.0347452 0)
(26.4653 0.0366051 0)
(26.4661 0.0387153 0)
(26.4668 0.041109 0)
(26.4674 0.0438239 0)
(26.4678 0.0469028 0)
(26.4681 0.0503939 0)
(26.4682 0.0543521 0)
(26.4681 0.0588392 0)
(26.4678 0.0639255 0)
(26.4671 0.0696903 0)
(26.4662 0.0762237 0)
(26.465 0.0836274 0)
(26.4633 0.0920171 0)
(26.4612 0.101523 0)
(26.4587 0.112294 0)
(26.4555 0.124498 0)
(26.4517 0.138325 0)
(26.4473 0.15399 0)
(26.442 0.171739 0)
(26.4358 0.19185 0)
(26.4286 0.214639 0)
(26.4203 0.240463 0)
(26.4107 0.269729 0)
(26.3997 0.302902 0)
(26.3871 0.340509 0)
(26.3727 0.383149 0)
(26.3563 0.431506 0)
(26.3378 0.486361 0)
(26.3169 0.548605 0)
(26.2933 0.619255 0)
(26.2669 0.699477 0)
(26.2372 0.790604 0)
(26.2041 0.894168 0)
(26.1674 1.01192 0)
(26.1268 1.14589 0)
(26.0821 1.2984 0)
(26.0332 1.47213 0)
(25.9802 1.67018 0)
(25.9231 1.89611 0)
(25.8626 2.15405 0)
(25.7992 2.44878 0)
(25.7344 2.7858 0)
(25.67 3.17144 0)
(25.609 3.61299 0)
(25.5555 4.11871 0)
(25.5154 4.69792 0)
(25.4971 5.36093 0)
(25.5118 6.11878 0)
(25.5751 6.98277 0)
(25.7076 7.9634 0)
(25.9367 9.06882 0)
(26.2962 10.3011 0)
(26.8298 11.6562 0)
(27.5997 13.0879 0)
(28.537 14.2751 0)
(29.4508 14.9466 0)
(30.1179 15.3903 0)
(30.4542 15.1596 0)
(30.2162 14.3038 0)
(28.8539 12.9903 0)
(26.618 10.6991 0)
(23.5797 7.92663 0)
(20.3639 5.16257 0)
(16.7405 1.94398 0)
(12.0123 0.343261 0)
(8.46982 0.186365 0)
(6.49649 0.198277 0)
(5.69024 0.19459 0)
(4.15157 0.711447 0)
(2.62117 0.195473 0)
(2.26727 -0.0184316 0)
(1.98301 -0.112734 0)
(1.82219 -0.0133875 0)
(1.91274 -0.0555077 0)
(2.07589 -0.427489 0)
(2.03563 -0.311857 0)
(1.92359 -0.169545 0)
(1.92834 -0.200498 0)
(2.03234 0.0714108 0)
(2.32066 0.148006 0)
(2.36134 -0.0403792 0)
(2.33613 -0.180002 0)
(2.2642 -0.213494 0)
(2.23446 0.0389628 0)
(2.36315 0.238399 0)
(2.36434 0.236194 0)
(2.39272 0.190339 0)
(2.45084 0.165329 0)
(2.4709 0.166234 0)
(2.43597 0.133787 0)
(2.43503 0.0960207 0)
(2.49458 0.0923254 0)
(2.56741 0.123305 0)
(2.58727 0.168741 0)
(2.5454 0.188877 0)
(2.52141 0.148308 0)
(2.5444 0.0800029 0)
(2.59957 0.0275616 0)
(2.65742 -0.0215991 0)
(2.71695 -0.0689067 0)
(2.75127 -0.014554 0)
(2.79653 0.321423 0)
(2.96046 0.203006 0)
(2.95103 -0.108945 0)
(3.02062 0.247648 0)
(2.98339 0.288611 0)
(2.98075 0.226972 0)
(2.9735 0.133147 0)
(2.97638 0.0268223 0)
(3.03367 -0.0624646 0)
(3.28478 -0.0679964 0)
(3.48405 0.275243 0)
(3.64209 0.273816 0)
(3.74752 0.242355 0)
(4.01404 0.470115 0)
(3.86884 1.64653 0)
(4.40907 1.47948 0)
(1.31283 0.35568 0)
(0.699725 0.10427 0)
(0.58421 -0.0355724 0)
(0.525066 -0.113872 0)
(0.51884 -0.162059 0)
(0.487899 -0.0655719 0)
(0.482286 0.662806 0)
(0.275087 0.226345 0)
(-0.377573 0.0438385 0)
(-0.695077 0.0158614 0)
(-0.75475 0.0128363 0)
(-0.62267 -0.0118321 0)
(-0.403694 -0.104512 0)
(-0.0532368 -0.169649 0)
(0.200682 -0.194121 0)
(0.242211 -0.141498 0)
(0.332485 -0.0954816 0)
(0.355333 -0.0712042 0)
(0.400405 0.00820852 0)
(0.459455 0.0638993 0)
(0.478458 0.0527686 0)
(0.445606 0.05322 0)
(0.380066 0.107851 0)
(0.285413 0.235367 0)
(0.2043 0.390537 0)
(-0.0370629 0.533628 0)
(64.5122 0.00408883 0)
(21.2457 0.00726987 0)
(20.6187 0.00857697 0)
(25.9818 0.00992137 0)
(27.261 0.0114039 0)
(26.7095 0.0128202 0)
(26.2819 0.014076 0)
(26.2258 0.0151803 0)
(26.2894 0.0161643 0)
(26.3267 0.0170474 0)
(26.33 0.0178384 0)
(26.3251 0.0185438 0)
(26.3236 0.0191713 0)
(26.3252 0.0197291 0)
(26.3273 0.0202248 0)
(26.329 0.0206654 0)
(26.3304 0.0210568 0)
(26.3318 0.0214044 0)
(26.3333 0.021713 0)
(26.3348 0.021987 0)
(26.3362 0.0222302 0)
(26.3377 0.022446 0)
(26.3392 0.0226375 0)
(26.3407 0.0228073 0)
(26.3422 0.022958 0)
(26.3436 0.0230918 0)
(26.3451 0.0232106 0)
(26.3466 0.0233162 0)
(26.3481 0.0234102 0)
(26.3496 0.0234941 0)
(26.351 0.023569 0)
(26.3525 0.023636 0)
(26.354 0.0236962 0)
(26.3555 0.0237502 0)
(26.357 0.0237988 0)
(26.3585 0.0238426 0)
(26.36 0.023882 0)
(26.3615 0.0239175 0)
(26.3629 0.0239494 0)
(26.3644 0.023978 0)
(26.3659 0.0240037 0)
(26.3674 0.0240265 0)
(26.3689 0.0240469 0)
(26.3704 0.024065 0)
(26.3719 0.024081 0)
(26.3734 0.0240951 0)
(26.3749 0.0241074 0)
(26.3764 0.0241183 0)
(26.3779 0.0241278 0)
(26.3794 0.024136 0)
(26.381 0.0241432 0)
(26.3825 0.0241494 0)
(26.384 0.0241548 0)
(26.3855 0.0241593 0)
(26.387 0.0241632 0)
(26.3885 0.0241664 0)
(26.39 0.0241691 0)
(26.3916 0.0241713 0)
(26.3931 0.0241731 0)
(26.3946 0.0241745 0)
(26.3961 0.0241756 0)
(26.3977 0.0241766 0)
(26.3992 0.0241775 0)
(26.4007 0.0241784 0)
(26.4023 0.0241796 0)
(26.4038 0.024181 0)
(26.4053 0.024183 0)
(26.4069 0.0241856 0)
(26.4084 0.0241892 0)
(26.4099 0.0241939 0)
(26.4115 0.0241999 0)
(26.413 0.0242077 0)
(26.4146 0.0242174 0)
(26.4161 0.0242295 0)
(26.4177 0.0242444 0)
(26.4192 0.0242624 0)
(26.4208 0.0242841 0)
(26.4224 0.0243102 0)