/*--------------------------------*- C++ -*----------------------------------*\
| =========                 |                                                 |
| \\      /  F ield         | OpenFOAM: The Open Source CFD Toolbox           |
|  \\    /   O peration     | Version:  2406                                  |
|   \\  /    A nd           | Website:  www.openfoam.com                      |
|    \\/     M anipulation  |                                                 |
\*---------------------------------------------------------------------------*/
FoamFile
{
    version     2.0;
    format      ascii;
    arch        "LSB;label=32;scalar=64";
    class       volScalarField;
    location    "500";
    object      alphat;
}
// * * * * * * * * * * * * * * * * * * * * * * * * * * * * * * * * * * * * * //

dimensions      [0 2 -1 0 0 0 0];

internalField   nonuniform List<scalar> 
5619
(
6.08045e-05
6.25103e-05
6.41737e-05
6.58467e-05
6.74638e-05
6.90207e-05
7.05128e-05
7.19513e-05
7.33555e-05
7.47503e-05
7.61614e-05
7.76117e-05
7.91181e-05
8.0691e-05
8.23344e-05
8.40479e-05
8.58278e-05
8.76687e-05
8.95647e-05
9.15098e-05
9.34982e-05
9.55243e-05
9.75831e-05
9.96694e-05
0.000101779
0.000103906
0.000106048
0.000108201
0.000110361
0.000112527
0.000114697
0.00011687
0.000119048
0.00012123
0.000123419
0.000125617
0.000127828
0.000130053
0.000132295
0.000134555
0.000136834
0.000139131
0.000141443
0.000143767
0.000146098
0.000148429
0.000150753
0.000153062
0.000155347
0.000157598
0.000159808
0.000161968
0.000164073
0.000166116
0.000168096
0.000170014
0.000171875
0.000173691
0.000175482
0.000177232
0.00017889
0.000180446
0.000181894
0.000183225
0.000184428
0.000185493
0.000186405
0.000187145
0.00018769
0.000188009
0.000188066
0.000187808
0.000187171
0.000186065
0.000184373
0.000181932
0.000178518
0.000173819
0.000167389
0.000158594
0.000146516
0.000129872
0.000107061
7.72465e-05
4.57463e-05
3.3388e-05
3.39872e-05
3.44921e-05
3.47279e-05
3.48881e-05
3.4994e-05
3.50562e-05
3.50824e-05
3.50784e-05
3.50489e-05
3.49976e-05
3.49271e-05
3.48397e-05
3.47372e-05
3.46209e-05
3.44917e-05
3.43357e-05
3.41491e-05
3.39284e-05
3.36699e-05
3.33706e-05
3.30392e-05
3.26824e-05
3.23034e-05
3.19063e-05
3.14957e-05
3.10772e-05
3.06565e-05
3.02396e-05
2.9832e-05
2.9439e-05
2.90647e-05
2.87125e-05
2.83848e-05
2.80829e-05
2.7807e-05
2.75568e-05
2.73311e-05
2.71285e-05
2.69473e-05
2.67855e-05
2.66414e-05
2.65132e-05
2.63994e-05
2.62878e-05
2.61778e-05
2.60687e-05
2.596e-05
2.58512e-05
2.57419e-05
2.56316e-05
2.55198e-05
2.54063e-05
2.52908e-05
2.51729e-05
2.50524e-05
2.4929e-05
2.48027e-05
2.46733e-05
2.45408e-05
2.44052e-05
2.42666e-05
2.41253e-05
2.39814e-05
2.38353e-05
2.36875e-05
2.35386e-05
2.33892e-05
2.32403e-05
2.30927e-05
2.29474e-05
2.28055e-05
2.26682e-05
2.25366e-05
2.2412e-05
2.22956e-05
2.21884e-05
2.20916e-05
2.20058e-05
2.19318e-05
2.18699e-05
2.18203e-05
2.17829e-05
2.17573e-05
2.1743e-05
2.17391e-05
2.17448e-05
2.17591e-05
2.17809e-05
2.18094e-05
2.18447e-05
2.18885e-05
2.19462e-05
2.20287e-05
2.21553e-05
2.23556e-05
2.26661e-05
2.31177e-05
2.37046e-05
2.43128e-05
2.45255e-05
2.30393e-05
0.00028454
0.000297232
0.000313095
0.000329075
0.00034555
0.000362345
0.000379453
0.000396819
0.000414416
0.000432241
0.000450326
0.000468736
0.000487546
0.000506823
0.000526609
0.000546913
0.000567712
0.000588953
0.000610566
0.000632467
0.000654562
0.000676756
0.00069895
0.000721045
0.000742942
0.000764543
0.000785756
0.000806493
0.000826674
0.000846232
0.000865114
0.000883284
0.000900728
0.000917453
0.000933492
0.0009489
0.00096376
0.000978174
0.000992266
0.00100617
0.00102005
0.00103405
0.00104833
0.00106306
0.00107839
0.00109446
0.00111141
0.00112934
0.00114837
0.00116856
0.00118998
0.00121265
0.00123656
0.00126168
0.00128792
0.00131516
0.00134321
0.00137184
0.00140075
0.00142993
0.00145988
0.00149046
0.00152157
0.0015531
0.0015849
0.00161685
0.00164875
0.0016804
0.00171155
0.00174188
0.00177102
0.00179847
0.0018236
0.00184557
0.00186323
0.00187501
0.0018787
0.00187117
0.00184787
0.00180224
0.0017246
0.0016008
0.0014105
0.00112728
0.000733748
0.000297532
6.41261e-05
2.71065e-05
2.5409e-05
2.54326e-05
2.56351e-05
2.59308e-05
2.62913e-05
2.66976e-05
2.71336e-05
2.7585e-05
2.80409e-05
2.84922e-05
2.89322e-05
2.93558e-05
2.97598e-05
3.01799e-05
3.06088e-05
3.10345e-05
3.14397e-05
3.17992e-05
3.21366e-05
3.25096e-05
3.29165e-05
3.33545e-05
3.38198e-05
3.43075e-05
3.48122e-05
3.53283e-05
3.58497e-05
3.63705e-05
3.68849e-05
3.73871e-05
3.78724e-05
3.83362e-05
3.87753e-05
3.9187e-05
3.95701e-05
3.99237e-05
4.02482e-05
4.05441e-05
4.08127e-05
4.10552e-05
4.12732e-05
4.14903e-05
4.17075e-05
4.19261e-05
4.21469e-05
4.23709e-05
4.25992e-05
4.28327e-05
4.30722e-05
4.33188e-05
4.35731e-05
4.38359e-05
4.4108e-05
4.43899e-05
4.46822e-05
4.49852e-05
4.52993e-05
4.56246e-05
4.59607e-05
4.63075e-05
4.66641e-05
4.70297e-05
4.74029e-05
4.77819e-05
4.81645e-05
4.85481e-05
4.89293e-05
4.93044e-05
4.96692e-05
5.00189e-05
5.03484e-05
5.06522e-05
5.09244e-05
5.11591e-05
5.13502e-05
5.14916e-05
5.15773e-05
5.16012e-05
5.15569e-05
5.14377e-05
5.12354e-05
5.09402e-05
5.05385e-05
5.00139e-05
4.94024e-05
4.8671e-05
4.77774e-05
4.6665e-05
4.52624e-05
4.3487e-05
4.12604e-05
3.85416e-05
3.53839e-05
3.20048e-05
2.88364e-05
2.65326e-05
2.60331e-05
2.91792e-05
4.27104e-05
0.000788894
0.000826638
0.000871805
0.000916772
0.000962317
0.00100805
0.00105398
0.00109999
0.00114604
0.00119213
0.00123838
0.00128499
0.0013322
0.00138024
0.00142927
0.00147934
0.00153042
0.00158241
0.00163515
0.00168844
0.00174207
0.00179581
0.00184944
0.00190271
0.0019554
0.00200728
0.00205812
0.00210772
0.0021559
0.00220249
0.00224737
0.00229047
0.00233177
0.00237131
0.00240922
0.00244566
0.00248087
0.00251517
0.00254889
0.00258242
0.00261616
0.00265052
0.00268591
0.00272269
0.00276121
0.00280176
0.0028446
0.0028899
0.00293779
0.00298834
0.00304152
0.00309726
0.0031554
0.00321572
0.00327794
0.00334171
0.00340663
0.0034723
0.00353831
0.00360504
0.00367219
0.00373922
0.00380564
0.00387095
0.00393459
0.00399595
0.00405434
0.00410894
0.00415885
0.00420298
0.00424005
0.00426849
0.00428639
0.00429137
0.00428041
0.00424963
0.00419402
0.00410709
0.00398042
0.00380326
0.00356227
0.00324169
0.00282521
0.00230188
0.00168023
0.00101249
0.000423273
0.000106769
4.04627e-05
3.74616e-05
3.98356e-05
4.25453e-05
4.52978e-05
4.80047e-05
5.06031e-05
5.30425e-05
5.52846e-05
5.73049e-05
5.90924e-05
6.06473e-05
6.19789e-05
6.32105e-05
6.43022e-05
6.52077e-05
6.58788e-05
6.62969e-05
6.66254e-05
6.68532e-05
6.6967e-05
6.696e-05
6.68335e-05
6.65983e-05
6.62737e-05
6.58851e-05
6.54614e-05
6.50307e-05
6.46176e-05
6.42408e-05
6.39126e-05
6.3639e-05
6.34209e-05
6.32552e-05
6.31363e-05
6.30576e-05
6.30116e-05
6.29917e-05
6.29918e-05
6.30058e-05
6.30298e-05
6.30638e-05
6.31067e-05
6.31584e-05
6.32182e-05
6.32861e-05
6.33618e-05
6.34453e-05
6.35367e-05
6.36361e-05
6.37436e-05
6.38594e-05
6.39837e-05
6.41167e-05
6.42586e-05
6.44095e-05
6.45695e-05
6.47384e-05
6.49158e-05
6.51014e-05
6.52942e-05
6.54931e-05
6.56964e-05
6.59018e-05
6.61067e-05
6.63072e-05
6.64992e-05
6.66771e-05
6.6835e-05
6.69656e-05
6.70608e-05
6.71116e-05
6.71084e-05
6.70406e-05
6.68974e-05
6.66677e-05
6.63404e-05
6.59047e-05
6.53502e-05
6.4667e-05
6.38464e-05
6.2881e-05
6.17651e-05
6.05346e-05
5.92133e-05
5.78016e-05
5.63109e-05
5.47693e-05
5.32308e-05
5.17877e-05
5.0587e-05
4.98481e-05
4.98825e-05
5.11195e-05
5.41716e-05
6.0049e-05
7.08365e-05
9.19076e-05
0.000143291
0.00155578
0.00162562
0.00170777
0.00178888
0.00186979
0.00194963
0.00202831
0.00210563
0.00218164
0.00225658
0.00233093
0.00240531
0.00248037
0.00255665
0.00263452
0.00271413
0.00279546
0.00287832
0.00296241
0.00304741
0.00313295
0.00321863
0.00330409
0.00338893
0.00347277
0.00355524
0.00363601
0.00371473
0.00379112
0.00386497
0.0039361
0.00400445
0.00407005
0.00413303
0.00419363
0.0042522
0.0043092
0.00436517
0.00442071
0.00447646
0.00453306
0.00459117
0.00465137
0.0047142
0.00478011
0.00484946
0.0049225
0.00499936
0.00508007
0.00516454
0.00525256
0.00534383
0.00543795
0.00553443
0.00563272
0.00573223
0.00583231
0.00593232
0.00603157
0.00613006
0.00622671
0.00632023
0.00640955
0.0064936
0.00657124
0.00664123
0.00670223
0.00675272
0.00679102
0.00681523
0.00682315
0.00681225
0.00677955
0.0067215
0.00663393
0.00651182
0.0063493
0.00613953
0.00587488
0.00554734
0.00514943
0.0046758
0.00412537
0.00350307
0.00281987
0.00209217
0.00135041
0.00067246
0.000225674
9.74438e-05
0.000102339
0.000113378
0.000121177
0.000127597
0.000132975
0.000137478
0.000141222
0.000144311
0.000146839
0.000148883
0.000150509
0.000151885
0.000152956
0.000153657
0.000153918
0.000153751
0.000153165
0.000152093
0.000150477
0.000148283
0.000145513
0.00014221
0.000138465
0.000134401
0.000130166
0.000125913
0.00012178
0.000117877
0.000114284
0.000111044
0.000108175
0.00010567
0.000103508
0.000101659
0.000100089
9.87617e-05
9.76445e-05
9.67042e-05
9.59128e-05
9.5179e-05
9.44931e-05
9.38493e-05
9.32419e-05
9.26661e-05
9.21175e-05
9.15926e-05
9.10882e-05
9.06017e-05
9.01308e-05
8.96739e-05
8.92296e-05
8.87968e-05
8.83748e-05
8.79633e-05
8.7562e-05
8.71711e-05
8.67907e-05
8.64212e-05
8.60629e-05
8.57161e-05
8.53811e-05
8.50578e-05
8.47458e-05
8.44444e-05
8.41521e-05
8.38671e-05
8.3587e-05
8.33089e-05
8.30295e-05
8.27452e-05
8.24526e-05
8.21487e-05
8.18317e-05
8.15013e-05
8.11595e-05
8.08115e-05
8.04662e-05
8.01372e-05
7.98432e-05
7.96094e-05
7.94689e-05
7.95551e-05
7.99188e-05
8.06366e-05
8.18095e-05
8.35682e-05
8.60793e-05
8.95517e-05
9.42431e-05
0.000100468
0.000108618
0.000119225
0.000133138
0.000151976
0.000179251
0.000223395
0.000309453
0.00251562
0.00262063
0.00274253
0.00286205
0.00297969
0.00309404
0.00320483
0.00331198
0.00341582
0.00351709
0.00361685
0.00371633
0.00381668
0.00391885
0.00402341
0.0041306
0.00424035
0.00435237
0.00446622
0.0045814
0.00469738
0.00481362
0.00492956
0.0050447
0.00515851
0.00527051
0.00538023
0.00548728
0.00559131
0.00569206
0.00578936
0.00588319
0.00597363
0.0060609
0.00614538
0.00622757
0.00630807
0.00638759
0.00646689
0.00654677
0.006628
0.00671134
0.00679745
0.00688692
0.00698017
0.00707753
0.00717915
0.00728502
0.007395
0.00750878
0.00762592
0.00774583
0.00786785
0.00799117
0.00811495
0.00823824
0.00836008
0.00847943
0.00859518
0.00870627
0.00881178
0.00890973
0.00899858
0.00907682
0.00914289
0.00919514
0.00923178
0.00925086
0.00925026
0.00922765
0.00918045
0.0091058
0.00900055
0.00886122
0.00868405
0.00846507
0.00820024
0.00788572
0.00751833
0.00709606
0.00661877
0.00608867
0.0055103
0.00488936
0.0042303
0.00353399
0.00279836
0.00202705
0.00125422
0.000587231
0.00021154
0.000145358
0.000216826
0.000270222
0.000285224
0.000290071
0.00029265
0.000294672
0.000296529
0.000298267
0.000299893
0.000301544
0.000303128
0.000304523
0.000305591
0.000306514
0.000307179
0.000307364
0.000306793
0.000305156
0.00030216
0.000297591
0.000291378
0.00028363
0.000274628
0.000264779
0.000254535
0.000244325
0.000234498
0.000225305
0.000216898
0.000209351
0.000202674
0.000196836
0.000191777
0.000187427
0.000183708
0.000180537
0.000177833
0.00017531
0.000172936
0.000170693
0.000168563
0.000166533
0.000164587
0.000162714
0.000160903
0.000159144
0.00015743
0.000155755
0.000154113
0.000152501
0.000150916
0.000149357
0.000147824
0.000146319
0.000144845
0.000143404
0.000142002
0.000140645
0.00013934
0.000138093
0.000136914
0.000135812
0.000134797
0.000133878
0.000133067
0.000132375
0.000131814
0.000131397
0.000131138
0.000131051
0.000131153
0.000131462
0.000131998
0.000132785
0.000133848
0.000135216
0.00013692
0.000138996
0.000141486
0.000144665
0.000148554
0.00015323
0.00015879
0.000165348
0.000173036
0.000182016
0.00019249
0.000204731
0.000219143
0.000236377
0.00025753
0.000284519
0.000320754
0.000372204
0.000448375
0.00359885
0.00373998
0.00390129
0.0040584
0.00421109
0.00435755
0.00449759
0.00463141
0.00475991
0.0048845
0.00500693
0.00512905
0.00525249
0.00537851
0.00550786
0.0056408
0.0057772
0.00591666
0.0060586
0.00620237
0.00634729
0.00649269
0.00663789
0.00678228
0.00692523
0.00706619
0.00720463
0.0073401
0.00747222
0.00760071
0.00772542
0.00784631
0.00796348
0.00807718
0.00818779
0.00829582
0.00840187
0.00850663
0.00861083
0.00871522
0.00882052
0.00892741
0.00903648
0.0091482
0.00926289
0.00938075
0.0095018
0.00962589
0.00975271
0.00988178
0.0100125
0.010144
0.0102756
0.0104062
0.0105347
0.01066
0.0107809
0.0108961
0.0110043
0.0111041
0.0111948
0.0112743
0.011341
0.0113934
0.0114298
0.0114486
0.011448
0.011426
0.0113806
0.0113097
0.0112109
0.0110819
0.0109202
0.0107234
0.0104891
0.0102151
0.00989972
0.00954174
0.00914078
0.00869752
0.00821381
0.00769269
0.00713793
0.00655324
0.00594092
0.00530027
0.00462648
0.00391094
0.00314497
0.00233027
0.00150337
0.000772336
0.000316307
0.000182913
0.000228817
0.000314863
0.000352196
0.000359169
0.000359402
0.000358911
0.000358867
0.000359523
0.000360795
0.000362566
0.000364739
0.000368803
0.000375807
0.000385791
0.000398406
0.00041282
0.000427673
0.000441173
0.000451431
0.00045694
0.00045701
0.000451912
0.000442679
0.000430699
0.000417317
0.000403606
0.000390297
0.000377827
0.00036642
0.000356165
0.000347063
0.000339068
0.000332109
0.00032608
0.000320862
0.000315969
0.000311346
0.000306969
0.000302813
0.000298851
0.000295062
0.000291422
0.000287911
0.000284512
0.000281209
0.000277988
0.000274838
0.00027175
0.00026872
0.000265742
0.000262817
0.000259948
0.000257137
0.000254395
0.000251729
0.000249152
0.000246679
0.000244326
0.000242111
0.000240054
0.000238175
0.000236497
0.000235042
0.000233832
0.000232891
0.000232242
0.000231907
0.000231909
0.00023227
0.000233012
0.000234157
0.000235726
0.000237742
0.000240228
0.000243208
0.000246711
0.000250771
0.000255487
0.000261072
0.00026748
0.000274764
0.000282994
0.000292269
0.000302726
0.000314554
0.000328022
0.000343509
0.000361559
0.000382926
0.000408607
0.00043973
0.000476896
0.000517956
0.00473746
0.00491422
0.00511263
0.00530464
0.00548901
0.00566386
0.00582931
0.00598617
0.0061361
0.00628125
0.00642406
0.00656688
0.00671173
0.00686004
0.00701265
0.0071698
0.00733131
0.00749668
0.00766522
0.00783617
0.00800878
0.00818226
0.00835591
0.00852901
0.00870092
0.00887103
0.00903877
0.00920365
0.00936527
0.00952329
0.00967749
0.00982775
0.00997407
0.0101165
0.0102554
0.0103909
0.0105235
0.0106536
0.0107816
0.010908
0.0110333
0.0111579
0.0112821
0.0114062
0.0115304
0.0116547
0.0117791
0.0119033
0.0120271
0.0121501
0.0122717
0.0123913
0.0125081
0.0126214
0.0127303
0.0128338
0.0129309
0.0130207
0.0131021
0.013174
0.0132364
0.0132875
0.013326
0.0133505
0.0133594
0.0133513
0.0133246
0.0132774
0.013208
0.0131145
0.012995
0.0128476
0.0126704
0.0124617
0.01222
0.011944
0.011633
0.0112864
0.0109046
0.0104884
0.0100393
0.00955953
0.00905156
0.00851797
0.00796068
0.00738012
0.00677429
0.00613805
0.00546304
0.00473873
0.00395542
0.00311129
0.00222837
0.00137904
0.000706097
0.000329042
0.0002108
0.000196933
0.000202355
0.000204472
0.00020375
0.000202584
0.000201699
0.000201235
0.000201162
0.000203281
0.00020903
0.000219266
0.000235259
0.000258618
0.000290988
0.000333338
0.00038472
0.000440962
0.000494642
0.000537603
0.000564788
0.000576121
0.000575181
0.000566599
0.000554233
0.000540615
0.000527147
0.000514504
0.000502959
0.000492592
0.000483393
0.000475279
0.000468123
0.000461352
0.00045491
0.000448781
0.000442943
0.000437375
0.000432053
0.000426953
0.000422052
0.000417325
0.000412752
0.000408313
0.000403993
0.000399778
0.000395657
0.000391624
0.000387678
0.000383818
0.000380049
0.000376379
0.000372821
0.000369389
0.0003661
0.000362975
0.000360035
0.000357303
0.000354805
0.000352565
0.000350606
0.000348953
0.000347628
0.000346652
0.000346045
0.000345824
0.000346005
0.000346603
0.000347632
0.000349103
0.000351028
0.00035342
0.000356292
0.00035966
0.000363542
0.000367963
0.000373017
0.000378803
0.000385299
0.000392554
0.000400631
0.000409616
0.00041962
0.000430775
0.000443233
0.000457148
0.00047263
0.000489645
0.000507806
0.000525994
0.00054195
0.00586492
0.00607587
0.00630799
0.0065313
0.00674326
0.00694232
0.00712913
0.00730538
0.00747361
0.00763678
0.00779789
0.00795969
0.00812438
0.00829346
0.00846778
0.00864754
0.00883249
0.00902208
0.00921558
0.00941219
0.00961112
0.00981157
0.0100128
0.0102141
0.0104148
0.0106143
0.0108119
0.0110071
0.0111995
0.0113885
0.0115738
0.0117551
0.0119321
0.0121045
0.0122722
0.0124352
0.0125933
0.0127465
0.0128948
0.0130381
0.0131765
0.0133101
0.0134387
0.0135625
0.0136814
0.0137954
0.0139046
0.014009
0.0141086
0.0142034
0.0142935
0.0143788
0.0144594
0.0145353
0.0146063
0.0146724
0.0147332
0.0147885
0.0148379
0.0148806
0.0149182
0.0149488
0.0149709
0.0149832
0.014984
0.0149717
0.0149446
0.0149008
0.0148384
0.0147554
0.01465
0.0145202
0.0143645
0.0141813
0.0139693
0.0137276
0.0134555
0.0131528
0.0128197
0.012457
0.0120657
0.0116474
0.0112039
0.0107369
0.0102482
0.00973869
0.00920821
0.00865502
0.00807542
0.00746371
0.00681246
0.00611343
0.00535916
0.00454602
0.0036807
0.00279218
0.00194451
0.00123667
0.000751475
0.000483196
0.000352641
0.00028532
0.000248474
0.000225579
0.000207982
0.000192187
0.000177278
0.000163497
0.000151761
0.000143438
0.00014033
0.000144859
0.000160458
0.000191971
0.000245198
0.000323647
0.000421498
0.00051924
0.000593756
0.000635346
0.000649845
0.000648253
0.000639225
0.000627667
0.000615864
0.000604734
0.00059459
0.000585461
0.000577252
0.000569385
0.000561821
0.000554563
0.000547605
0.00054094
0.000534553
0.000528427
0.000522543
0.000516879
0.000511416
0.000506132
0.00050101
0.000496036
0.000491199
0.00048649
0.000481905
0.000477447
0.000473118
0.000468928
0.000464888
0.000461014
0.000457324
0.000453838
0.000450578
0.000447565
0.000444821
0.000442368
0.000440226
0.000438412
0.00043694
0.000435822
0.000435069
0.000434684
0.000434673
0.000435037
0.000435774
0.000436885
0.000438367
0.00044022
0.000442443
0.000445037
0.000448007
0.000451358
0.0004551
0.000459288
0.000463958
0.000469096
0.000474714
0.000480826
0.000487441
0.000494558
0.000502154
0.000510163
0.000518456
0.000526804
0.000534847
0.000542094
0.000548049
0.00691587
0.00715863
0.00742028
0.00767069
0.00790575
0.00812456
0.00832849
0.0085203
0.0087035
0.00888185
0.00905885
0.00923745
0.0094199
0.00960767
0.00980151
0.0100016
0.0102076
0.010419
0.010635
0.0108549
0.011078
0.0113034
0.0115304
0.0117584
0.0119867
0.0122145
0.0124413
0.0126665
0.0128893
0.0131091
0.0133253
0.0135373
0.0137444
0.013946
0.0141414
0.01433
0.0145112
0.0146842
0.0148485
0.0150035
0.0151487
0.0152836
0.015408
0.0155215
0.0156241
0.0157159
0.0157972
0.0158685
0.0159305
0.0159839
0.0160299
0.0160696
0.0161041
0.0161348
0.0161627
0.0161887
0.0162137
0.016238
0.0162617
0.0162847
0.0163081
0.0163317
0.0163532
0.0163707
0.0163821
0.0163854
0.0163783
0.0163589
0.0163247
0.0162739
0.0162043
0.0161141
0.0160016
0.0158653
0.0157041
0.0155171
0.0153038
0.015064
0.0147978
0.0145058
0.0141888
0.0138479
0.0134845
0.0130997
0.0126949
0.012271
0.0118284
0.0113667
0.0108846
0.0103798
0.00984887
0.0092876
0.0086915
0.00805642
0.00737952
0.00666047
0.00590313
0.00511833
0.00432746
0.00356438
0.00285658
0.00223081
0.00173351
0.00136689
0.00109967
0.000896498
0.000732872
0.000595084
0.000476562
0.000374916
0.000289873
0.000221849
0.000171082
0.000137386
0.000120671
0.00012237
0.000147635
0.000206708
0.000309135
0.000443778
0.000568347
0.00064654
0.000679333
0.000685668
0.000680635
0.000671852
0.00066241
0.00065335
0.000644923
0.000636676
0.000628615
0.000620773
0.000613172
0.000605822
0.000598726
0.00059188
0.000585278
0.000578906
0.000572751
0.000566798
0.000561034
0.000555447
0.000550028
0.000544773
0.00053968
0.000534752
0.000529994
0.000525416
0.000521033
0.000516858
0.000512911
0.00050921
0.000505773
0.000502622
0.000499771
0.000497238
0.000495033
0.000493166
0.000491641
0.000490458
0.000489613
0.000489099
0.000488905
0.000489019
0.000489426
0.000490112
0.000491062
0.000492263
0.000493704
0.000495373
0.000497263
0.000499368
0.000501682
0.000504202
0.000506946
0.000509915
0.000513089
0.000516455
0.000519991
0.000523672
0.00052746
0.000531304
0.000535143
0.000538903
0.000542518
0.000545949
0.000549234
0.00782419
0.00809527
0.00838127
0.00865373
0.00890681
0.00914047
0.00935689
0.00955996
0.00975423
0.0099442
0.0101338
0.010326
0.0105231
0.0107264
0.0109364
0.0111533
0.0113767
0.0116061
0.0118409
0.0120804
0.0123238
0.0125704
0.0128197
0.013071
0.0133235
0.0135766
0.0138296
0.0140817
0.0143322
0.0145802
0.0148248
0.015065
0.0152998
0.0155281
0.0157488
0.0159607
0.0161626
0.0163532
0.0165315
0.0166963
0.0168467
0.0169816
0.0171006
0.0172033
0.0172895
0.0173595
0.017414
0.0174538
0.0174805
0.0174958
0.0175015
0.0175
0.0174936
0.0174845
0.0174749
0.0174666
0.0174613
0.0174599
0.017463
0.0174705
0.0174818
0.0174991
0.0175209
0.0175447
0.017568
0.0175885
0.0176038
0.0176116
0.0176097
0.017596
0.0175686
0.0175255
0.0174653
0.0173864
0.0172877
0.0171683
0.0170277
0.0168654
0.0166815
0.016476
0.0162495
0.0160024
0.0157354
0.0154493
0.0151446
0.0148219
0.0144811
0.014122
0.0137438
0.0133451
0.0129237
0.0124772
0.0120024
0.0114964
0.0109563
0.0103802
0.00976758
0.00912004
0.00844202
0.00774114
0.00700674
0.0062267
0.00543596
0.00467367
0.00397245
0.00334902
0.00280284
0.00232321
0.00189806
0.00151905
0.00118286
0.000890259
0.000644127
0.00044716
0.00029963
0.000198133
0.000136075
0.000106215
0.000104982
0.000137966
0.000222312
0.000367155
0.000528904
0.000639305
0.000687262
0.000699578
0.000697659
0.000691184
0.000683629
0.000675622
0.000667491
0.000659397
0.000651414
0.000643586
0.000635939
0.000628486
0.000621236
0.000614191
0.000607349
0.000600706
0.000594258
0.000588002
0.000581935
0.00057606
0.00057038
0.000564901
0.000559636
0.000554595
0.000549795
0.000545252
0.000540984
0.000537009
0.000533344
0.000530003
0.000527
0.000524341
0.000522033
0.000520073
0.000518458
0.000517176
0.000516212
0.000515549
0.000515163
0.000515033
0.000515134
0.000515441
0.000515933
0.00051659
0.000517394
0.00051833
0.000519388
0.000520556
0.00052183
0.000523203
0.000524671
0.000526237
0.000527899
0.00052965
0.000531483
0.000533394
0.000535378
0.000537435
0.000539568
0.000541792
0.000544135
0.000546649
0.000549414
0.00852345
0.00881796
0.0091219
0.00941029
0.0096756
0.00991874
0.0101426
0.0103522
0.010553
0.0107503
0.0109481
0.0111498
0.0113572
0.0115715
0.0117931
0.012022
0.0122578
0.0125001
0.0127483
0.0130019
0.0132601
0.0135225
0.0137884
0.0140573
0.0143285
0.0146014
0.0148751
0.015149
0.015422
0.0156932
0.0159615
0.0162256
0.0164843
0.0167361
0.0169796
0.0172131
0.0174352
0.0176442
0.0178385
0.0180167
0.0181775
0.0183197
0.0184425
0.0185454
0.0186282
0.0186913
0.0187354
0.0187618
0.0187721
0.0187684
0.0187529
0.0187282
0.018697
0.0186618
0.0186253
0.0185896
0.0185566
0.0185279
0.0185047
0.0184874
0.0184763
0.018471
0.0184729
0.0184827
0.0184978
0.0185161
0.0185358
0.0185547
0.0185711
0.018583
0.0185886
0.0185864
0.0185747
0.0185522
0.0185177
0.0184702
0.0184087
0.0183328
0.0182417
0.0181354
0.0180134
0.0178757
0.0177222
0.0175527
0.0173671
0.017165
0.0169459
0.0167088
0.0164527
0.0161758
0.0158764
0.015552
0.0151999
0.0148175
0.0144019
0.0139504
0.013461
0.0129323
0.0123645
0.0117591
0.0110974
0.0103557
0.00955106
0.00870721
0.00785085
0.0070065
0.00619228
0.00541799
0.0046862
0.0039953
0.00334312
0.00272971
0.0021591
0.0016399
0.00118442
0.000805894
0.000513878
0.00030918
0.000181767
0.000114255
9.02311e-05
0.00010463
0.00017327
0.000320461
0.000507246
0.000637445
0.000692107
0.000706532
0.000706055
0.000700418
0.000692917
0.000684764
0.000676412
0.000668044
0.000659742
0.000651553
0.000643505
0.000635619
0.000627908
0.000620385
0.000613058
0.000605936
0.000599028
0.000592344
0.000585896
0.000579698
0.000573764
0.000568113
0.000562761
0.000557727
0.000553029
0.000548682
0.000544701
0.000541096
0.000537874
0.000535036
0.000532579
0.000530496
0.000528771
0.000527386
0.000526318
0.000525539
0.00052502
0.000524732
0.000524644
0.000524728
0.000524959
0.000525314
0.000525774
0.000526325
0.000526956
0.000527659
0.000528431
0.000529268
0.000530172
0.000531144
0.000532189
0.000533313
0.000534523
0.000535828
0.00053724
0.000538776
0.000540459
0.00054232
0.000544399
0.000546749
0.000549434
0.00895325
0.00926492
0.00957916
0.0098764
0.0101476
0.0103945
0.0106208
0.010832
0.0110345
0.0112342
0.0114354
0.0116414
0.0118541
0.0120741
0.0123019
0.0125371
0.0127795
0.0130286
0.0132839
0.0135449
0.0138113
0.0140825
0.014358
0.0146375
0.0149202
0.0152057
0.0154931
0.0157817
0.0160705
0.0163586
0.0166446
0.0169273
0.0172053
0.0174772
0.0177411
0.0179956
0.0182388
0.0184689
0.0186843
0.0188834
0.0190647
0.0192269
0.019369
0.0194903
0.0195906
0.0196699
0.0197287
0.0197679
0.0197888
0.019793
0.0197822
0.0197584
0.0197238
0.0196805
0.0196305
0.019576
0.0195189
0.019461
0.019404
0.0193496
0.019299
0.0192532
0.0192131
0.0191794
0.0191544
0.0191382
0.0191297
0.0191277
0.0191312
0.0191392
0.0191505
0.0191638
0.0191779
0.0191916
0.0192038
0.0192134
0.0192192
0.0192204
0.0192161
0.0192053
0.0191874
0.0191613
0.0191264
0.0190814
0.0190254
0.0189571
0.0188749
0.0187771
0.0186617
0.0185265
0.018369
0.0181862
0.0179751
0.0177327
0.0174557
0.0171408
0.0167852
0.0163864
0.0159423
0.0154519
0.0148944
0.0142427
0.0135021
0.0126844
0.0118071
0.0108908
0.00995655
0.00902273
0.00810317
0.00720644
0.00633653
0.00549454
0.00468069
0.00389644
0.00314661
0.00244121
0.00179685
0.00123608
0.000782869
0.000453035
0.000243673
0.000131642
8.6317e-05
8.92717e-05
0.000152797
0.000310831
0.000514292
0.000644916
0.000696098
0.000709927
0.00070897
0.000702698
0.000694574
0.000685815
0.000676855
0.000667868
0.000658937
0.000650112
0.00064143
0.00063292
0.000624609
0.000616519
0.000608674
0.000601094
0.0005938
0.000586815
0.00058016
0.000573856
0.000567923
0.00056238
0.000557243
0.000552527
0.000548242
0.000544393
0.000540979
0.000537997
0.000535435
0.000533277
0.0005315
0.000530078
0.000528981
0.000528176
0.000527627
0.000527301
0.000527165
0.000527187
0.00052734
0.000527602
0.000527954
0.000528382
0.000528877
0.000529433
0.000530046
0.000530719
0.000531454
0.000532255
0.00053313
0.000534087
0.000535138
0.000536296
0.000537578
0.000539004
0.0005406
0.000542396
0.000544433
0.000546759
0.000549436
0.00907033
0.0093917
0.00970778
0.0100061
0.0102764
0.0105214
0.0107448
0.010953
0.0111526
0.0113498
0.0115496
0.0117549
0.0119675
0.012188
0.0124163
0.0126522
0.0128952
0.0131449
0.0134009
0.0136627
0.0139303
0.0142031
0.014481
0.0147636
0.0150503
0.0153407
0.0156342
0.0159301
0.0162274
0.0165253
0.0168226
0.0171181
0.0174104
0.0176982
0.0179799
0.0182539
0.0185186
0.0187722
0.0190131
0.0192398
0.0194508
0.0196446
0.0198202
0.0199766
0.0201131
0.0202293
0.0203251
0.0204007
0.0204564
0.0204928
0.0205108
0.0205112
0.0204953
0.020464
0.0204188
0.0203611
0.0202923
0.0202142
0.0201286
0.0200375
0.019943
0.0198474
0.0197528
0.0196615
0.0195755
0.0194972
0.0194291
0.0193717
0.0193249
0.0192888
0.0192637
0.0192493
0.0192456
0.019252
0.0192679
0.0192926
0.0193254
0.0193653
0.0194115
0.0194631
0.0195189
0.0195779
0.0196387
0.0196999
0.0197596
0.019816
0.0198667
0.0199092
0.0199405
0.0199575
0.0199568
0.0199345
0.0198868
0.0198095
0.0196985
0.0195498
0.0193592
0.0191231
0.018838
0.0185012
0.018094
0.0175913
0.0169898
0.0162916
0.0155032
0.0146356
0.0137029
0.0127213
0.0117081
0.01068
0.00965207
0.0086364
0.00764152
0.00667266
0.00573275
0.00482401
0.00394993
0.00311764
0.00234059
0.00164107
0.00105008
0.000599759
0.000305127
0.000147516
8.42959e-05
8.31507e-05
0.000156136
0.000337056
0.000535068
0.000649643
0.00069034
0.00069844
0.000695121
0.000688017
0.00067963
0.000670787
0.000661786
0.000652761
0.000643788
0.000634925
0.00062622
0.000617713
0.000609443
0.000601447
0.000593759
0.00058641
0.000579429
0.000572845
0.000566681
0.000560959
0.000555695
0.000550901
0.000546584
0.000542746
0.00053938
0.000536475
0.000534015
0.000531976
0.000530329
0.000529043
0.000528081
0.000527407
0.000526981
0.000526768
0.000526732
0.000526842
0.000527071
0.000527395
0.000527798
0.000528267
0.000528794
0.000529374
0.000530006
0.000530692
0.000531436
0.000532244
0.000533123
0.000534083
0.000535136
0.000536295
0.000537578
0.000539004
0.0005406
0.000542396
0.000544433
0.000546759
0.000549436
0.00885789
0.00918085
0.00949007
0.00978147
0.010044
0.0102812
0.0104968
0.0106973
0.0108896
0.0110801
0.0112738
0.0114738
0.0116816
0.0118976
0.0121216
0.012353
0.0125913
0.012836
0.0130869
0.0133436
0.013606
0.0138741
0.0141476
0.0144263
0.01471
0.0149983
0.0152907
0.0155866
0.0158854
0.0161862
0.0164882
0.0167902
0.0170912
0.01739
0.0176852
0.0179754
0.0182594
0.0185355
0.0188024
0.0190586
0.0193026
0.019533
0.0197486
0.0199481
0.0201304
0.0202945
0.0204394
0.0205645
0.0206691
0.0207529
0.0208156
0.020857
0.0208774
0.0208768
0.0208557
0.0208149
0.0207552
0.0206779
0.0205844
0.0204765
0.020356
0.0202253
0.0200866
0.0199426
0.0197959
0.0196497
0.0195071
0.019372
0.0192478
0.0191356
0.0190362
0.0189509
0.0188809
0.018827
0.0187901
0.0187704
0.0187683
0.0187835
0.0188161
0.0188656
0.0189315
0.0190134
0.0191103
0.0192213
0.0193449
0.0194794
0.0196227
0.019772
0.0199242
0.0200756
0.020222
0.0203586
0.0204804
0.0205821
0.020658
0.0207024
0.0207098
0.0206745
0.0205914
0.0204554
0.020254
0.0199678
0.0195876
0.0191073
0.0185241
0.0178381
0.0170526
0.0161737
0.0152105
0.0141752
0.0130839
0.0119555
0.0108102
0.00966697
0.00854182
0.00744703
0.00639149
0.00538155
0.00442193
0.00351696
0.00267313
0.00190355
0.00123351
0.000701077
0.000340888
0.000149903
7.93227e-05
8.62006e-05
0.000185957
0.000397767
0.000566786
0.000632328
0.000649019
0.000649648
0.000645299
0.000639293
0.000632638
0.000625682
0.000618575
0.000611406
0.000604247
0.000597154
0.000590184
0.000583386
0.000576807
0.000570492
0.000564479
0.000558807
0.000553506
0.000548605
0.000544124
0.00054008
0.000536481
0.00053333
0.000530623
0.000528348
0.000526488
0.000525019
0.000523912
0.000523133
0.000522647
0.000522416
0.000522403
0.000522572
0.00052289
0.000523326
0.000523857
0.000524463
0.000525128
0.000525845
0.000526605
0.000527409
0.000528256
0.00052915
0.000530095
0.000531097
0.000532162
0.000533298
0.000534515
0.000535824
0.000537238
0.000538775
0.000540459
0.00054232