/*--------------------------------*- C++ -*----------------------------------*\
| =========                 |                                                 |
| \\      /  F ield         | OpenFOAM: The Open Source CFD Toolbox           |
|  \\    /   O peration     | Version:  2406                                  |
|   \\  /    A nd           | Website:  www.openfoam.com                      |
|    \\/     M anipulation  |                                                 |
\*---------------------------------------------------------------------------*/
FoamFile
{
    version     2.0;
    format      ascii;
    arch        "LSB;label=32;scalar=64";
    class       volScalarField;
    location    "500";
    object      k;
}
// * * * * * * * * * * * * * * * * * * * * * * * * * * * * * * * * * * * * * //

dimensions      [0 2 -2 0 0 0 0];

internalField   nonuniform List<scalar> 
5619
(
0.0529913
0.0560338
0.0590879
0.0622455
0.0653783
0.0684666
0.0714896
0.0744589
0.0774059
0.0803793
0.083435
0.0866275
0.0900027
0.093594
0.0974224
0.101498
0.105822
0.110392
0.115203
0.120248
0.125518
0.131007
0.136707
0.142608
0.148702
0.15498
0.161433
0.168053
0.174832
0.181765
0.188847
0.196078
0.203459
0.210995
0.218693
0.226564
0.234619
0.242869
0.251326
0.259998
0.26889
0.278002
0.28733
0.29686
0.306574
0.316446
0.326444
0.336531
0.346663
0.356796
0.366885
0.376884
0.386754
0.396459
0.405976
0.415297
0.424435
0.433432
0.442373
0.451251
0.459748
0.467806
0.475371
0.482387
0.488791
0.494509
0.499455
0.503524
0.506585
0.508478
0.509001
0.507898
0.504843
0.499416
0.491073
0.479105
0.462587
0.440321
0.41077
0.372047
0.322033
0.258961
0.183297
0.1028
0.0402068
0.0188753
0.0165954
0.0168983
0.0171696
0.017358
0.0174849
0.0175634
0.0176025
0.0176088
0.0175875
0.0175428
0.0174778
0.0173953
0.0172972
0.0171852
0.0170605
0.0169098
0.0167299
0.0165179
0.0162708
0.0159865
0.0156719
0.0153362
0.0149833
0.0146174
0.0142435
0.0138669
0.0134931
0.0131272
0.0127742
0.012438
0.0121218
0.0118278
0.0115574
0.011311
0.0110881
0.0108879
0.0107089
0.0105496
0.0104081
0.0102826
0.0101715
0.0100732
0.00998641
0.00990166
0.00981846
0.00973636
0.00965494
0.00957381
0.00949264
0.0094111
0.00932893
0.00924586
0.00916168
0.00907621
0.00898928
0.00890078
0.00881062
0.00871877
0.00862524
0.00853008
0.00843341
0.00833537
0.00823618
0.00813613
0.00803558
0.00793492
0.00783465
0.0077353
0.00763747
0.00754179
0.00744894
0.00735964
0.00727461
0.00719457
0.00712019
0.00705209
0.00699083
0.00693682
0.00689039
0.0068517
0.0068208
0.00679755
0.0067817
0.00677284
0.00677048
0.00677407
0.00678305
0.00679668
0.00681451
0.00683657
0.00686406
0.00690029
0.00695224
0.00703242
0.00716016
0.00736044
0.00765663
0.00805032
0.00846875
0.00861758
0.00760479
0.0617925
0.0658963
0.0704959
0.0752569
0.0801517
0.0851339
0.0901865
0.0953133
0.100544
0.105927
0.111527
0.117411
0.123639
0.13026
0.137307
0.144796
0.152734
0.161116
0.169935
0.179174
0.188819
0.198849
0.209243
0.219977
0.231026
0.242361
0.253956
0.265781
0.277812
0.290024
0.302397
0.314916
0.327574
0.340368
0.353303
0.366391
0.379647
0.393094
0.406754
0.420651
0.434807
0.449241
0.463966
0.478992
0.494319
0.509942
0.525849
0.542022
0.558438
0.575068
0.591883
0.60885
0.625937
0.643115
0.660357
0.677643
0.69496
0.712304
0.729686
0.747072
0.764207
0.781002
0.797377
0.813239
0.828483
0.842984
0.856591
0.869119
0.880338
0.889966
0.897645
0.902922
0.905221
0.903792
0.897664
0.885561
0.865805
0.836201
0.793926
0.735505
0.657078
0.555406
0.430344
0.289156
0.151188
0.049281
0.0124797
0.00739001
0.00684855
0.00657299
0.00636901
0.00620442
0.00606599
0.00594717
0.00584371
0.00575284
0.00567254
0.00560118
0.00553743
0.00548014
0.00542855
0.00537743
0.00532718
0.00527862
0.00523306
0.00519392
0.00516096
0.00513129
0.00510552
0.00508416
0.0050676
0.00505606
0.00504967
0.00504834
0.00505184
0.00505977
0.00507161
0.00508669
0.00510429
0.00512368
0.00514413
0.00516502
0.0051858
0.00520604
0.00522543
0.00524376
0.0052609
0.00527674
0.00529127
0.00530598
0.0053209
0.00533611
0.00535168
0.00536766
0.00538415
0.00540121
0.00541894
0.0054374
0.00545668
0.00547687
0.00549803
0.00552026
0.00554363
0.00556821
0.00559408
0.00562127
0.00564983
0.00567977
0.00571112
0.00574384
0.00577788
0.00581315
0.00584951
0.0058868
0.00592476
0.00596313
0.00600157
0.00603969
0.00607704
0.00611315
0.00614747
0.00617946
0.00620853
0.00623408
0.00625549
0.00627213
0.00628327
0.0062881
0.00628558
0.00627438
0.00625263
0.00622001
0.00617842
0.0061237
0.0060501
0.00594983
0.00581283
0.00562728
0.00538153
0.00506863
0.00469372
0.00428273
0.00388677
0.00357551
0.00342087
0.003484
0.00379533
0.074487
0.0799514
0.0859632
0.0921566
0.0985138
0.105001
0.111618
0.118387
0.125353
0.132579
0.14014
0.148109
0.156554
0.165527
0.175065
0.185189
0.195907
0.207216
0.219109
0.231571
0.244586
0.258131
0.272182
0.286713
0.301693
0.31709
0.332869
0.348997
0.365438
0.382163
0.399144
0.416358
0.433788
0.451424
0.469263
0.487308
0.505564
0.524042
0.542753
0.561707
0.580912
0.600367
0.62007
0.640007
0.660157
0.680495
0.700985
0.721588
0.742263
0.762964
0.783649
0.804276
0.824805
0.845203
0.86544
0.885491
0.905334
0.924948
0.944311
0.963402
0.981958
0.999877
1.01707
1.03342
1.04881
1.06309
1.07607
1.0875
1.09711
1.10451
1.10926
1.11078
1.10835
1.10105
1.08777
1.06708
1.03725
0.996215
0.941675
0.871312
0.783302
0.677142
0.554618
0.420361
0.281742
0.150889
0.0516473
0.0109419
0.0046048
0.00406781
0.00390471
0.00378744
0.00369612
0.00362323
0.00356509
0.00351914
0.00348303
0.00345469
0.00343249
0.00341512
0.00340167
0.00339038
0.00338118
0.00337406
0.00336912
0.00336571
0.00336218
0.00335833
0.0033541
0.00334953
0.00334482
0.00334033
0.00333653
0.00333399
0.00333326
0.00333483
0.00333902
0.00334595
0.00335556
0.00336758
0.00338163
0.00339722
0.00341385
0.00343102
0.00344828
0.00346525
0.00348166
0.0034972
0.00351178
0.00352672
0.00354203
0.00355775
0.00357392
0.00359059
0.00360781
0.00362564
0.00364415
0.00366339
0.00368345
0.00370439
0.00372628
0.0037492
0.00377323
0.00379842
0.00382484
0.00385252
0.00388149
0.00391177
0.00394332
0.00397611
0.00401003
0.00404492
0.00408058
0.00411672
0.00415297
0.00418888
0.00422391
0.00425741
0.00428863
0.00431675
0.00434083
0.00435988
0.00437285
0.00437866
0.00437623
0.00436448
0.00434237
0.00430893
0.00426332
0.00420487
0.00413325
0.00405059
0.00395583
0.003848
0.00372638
0.00359083
0.00344235
0.00328378
0.00312069
0.00296232
0.00282218
0.00271814
0.00267186
0.00270798
0.00285261
0.00312709
0.00351414
0.0880267
0.0947471
0.102039
0.109531
0.117198
0.125013
0.132991
0.141169
0.14961
0.158393
0.167606
0.177335
0.187655
0.198626
0.21029
0.222672
0.235783
0.249624
0.264189
0.279464
0.295434
0.312078
0.329372
0.347286
0.36579
0.384848
0.404422
0.424472
0.444958
0.465841
0.487084
0.508652
0.530516
0.552649
0.575032
0.597647
0.62048
0.643519
0.66675
0.690159
0.713726
0.737428
0.761235
0.78511
0.809012
0.832894
0.856705
0.880393
0.903907
0.927196
0.950217
0.972927
0.995292
1.01728
1.03887
1.06003
1.08074
1.10097
1.12068
1.13987
1.15827
1.17577
1.19224
1.20756
1.22156
1.23406
1.24481
1.25353
1.25984
1.26334
1.26349
1.25968
1.25117
1.23709
1.21642
1.18804
1.15071
1.10317
1.04427
0.973235
0.88987
0.794828
0.689533
0.575614
0.45408
0.32585
0.196261
0.0838756
0.0205024
0.00579845
0.0039251
0.00367726
0.00355685
0.00346857
0.00340191
0.0033512
0.00331303
0.0032849
0.00326464
0.0032502
0.00324004
0.0032322
0.00322583
0.00322015
0.00321438
0.00320612
0.0031942
0.00317762
0.00315557
0.00312752
0.00309336
0.00305352
0.00300898
0.00296123
0.00291205
0.00286332
0.00281681
0.00277393
0.00273568
0.00270259
0.00267479
0.00265209
0.00263405
0.00262013
0.00260971
0.00260218
0.00259702
0.00259363
0.00259161
0.00259055
0.00259029
0.00259079
0.002592
0.00259387
0.00259637
0.00259948
0.0026032
0.00260752
0.00261245
0.002618
0.00262418
0.00263102
0.00263855
0.00264678
0.00265575
0.00266546
0.00267593
0.00268715
0.00269911
0.00271176
0.00272503
0.00273881
0.00275295
0.00276725
0.00278146
0.00279526
0.00280826
0.00282003
0.00283007
0.00283783
0.00284274
0.00284423
0.00284174
0.00283479
0.002823
0.00280613
0.00278413
0.00275721
0.00272583
0.00269084
0.00265345
0.00261393
0.00257327
0.0025327
0.00249379
0.00245852
0.00242942
0.00240965
0.00240312
0.00241464
0.00244992
0.00251563
0.00261925
0.00276859
0.00297001
0.00322295
0.00350598
0.101945
0.109906
0.118472
0.127263
0.136236
0.145372
0.154693
0.164252
0.174128
0.184416
0.19522
0.20664
0.218762
0.231656
0.245371
0.259938
0.275371
0.291676
0.308849
0.326881
0.345758
0.365461
0.385968
0.407249
0.429273
0.452001
0.475391
0.499399
0.523974
0.549067
0.574625
0.600596
0.62693
0.653577
0.680486
0.707612
0.734907
0.762324
0.789817
0.817338
0.844835
0.872258
0.899551
0.926658
0.953524
0.980092
1.00631
1.03213
1.0575
1.08239
1.10676
1.1306
1.15387
1.17658
1.19869
1.2202
1.24109
1.26132
1.28086
1.29968
1.31755
1.33431
1.34981
1.36388
1.37633
1.3869
1.39532
1.40124
1.40428
1.40398
1.39985
1.3913
1.37773
1.35848
1.33285
1.3002
1.2599
1.21152
1.15482
1.0899
1.01721
0.937493
0.851502
0.759494
0.660639
0.552807
0.433517
0.303185
0.172091
0.0671027
0.0167885
0.00622476
0.00455319
0.00420794
0.00403112
0.00391024
0.00382797
0.00377184
0.00373383
0.00370832
0.00369191
0.00368124
0.00367467
0.00367051
0.00366701
0.00366109
0.00365031
0.00363245
0.00360546
0.0035676
0.0035177
0.00345537
0.00338117
0.00329671
0.00320453
0.00310787
0.00301018
0.00291474
0.00282429
0.00274079
0.00266543
0.0025987
0.00254055
0.00249055
0.00244802
0.00241218
0.00238223
0.00235724
0.00233644
0.00231756
0.00230026
0.00228439
0.00226979
0.00225631
0.00224384
0.00223226
0.00222148
0.00221144
0.00220205
0.00219329
0.00218512
0.0021775
0.00217045
0.00216395
0.00215801
0.00215266
0.00214791
0.0021438
0.00214034
0.00213755
0.00213547
0.00213408
0.00213339
0.00213336
0.00213396
0.00213513
0.00213676
0.00213876
0.00214101
0.00214337
0.00214573
0.00214797
0.00215001
0.00215182
0.00215344
0.00215499
0.00215669
0.00215885
0.00216194
0.0021665
0.00217323
0.00218224
0.00219421
0.00221006
0.00223086
0.00225786
0.00229251
0.00233652
0.0023919
0.00246099
0.00254654
0.0026516
0.0027794
0.00293283
0.00311329
0.00331826
0.00353768
0.116405
0.125635
0.135514
0.145647
0.155966
0.166455
0.177145
0.188103
0.199424
0.211224
0.223623
0.236735
0.250661
0.265479
0.281247
0.298002
0.315767
0.334551
0.354355
0.375175
0.397001
0.419816
0.443601
0.468328
0.493965
0.520472
0.547801
0.575899
0.604706
0.634154
0.664171
0.69468
0.725601
0.756847
0.788332
0.819966
0.851659
0.88332
0.914858
0.946186
0.977217
1.00787
1.03807
1.06774
1.09683
1.12529
1.15307
1.18016
1.20652
1.23216
1.25708
1.2813
1.30483
1.32769
1.3499
1.37145
1.39235
1.41257
1.43209
1.45082
1.46861
1.48524
1.50053
1.51425
1.52618
1.53601
1.54344
1.54809
1.54957
1.54744
1.54125
1.53054
1.51486
1.49375
1.46683
1.43381
1.39447
1.3488
1.29695
1.2393
1.17641
1.10893
1.03744
0.962109
0.882388
0.796626
0.701989
0.594903
0.472557
0.336413
0.19866
0.0865878
0.0265555
0.00921852
0.00585024
0.00505724
0.0047653
0.0045988
0.00449718
0.00443643
0.00440078
0.00437907
0.00436625
0.00435856
0.00435324
0.00434564
0.00433224
0.00431087
0.00427982
0.00423765
0.00418309
0.00411503
0.00403271
0.0039361
0.00382625
0.00370557
0.00357768
0.00344695
0.00331779
0.00319408
0.00307866
0.0029733
0.00287883
0.00279531
0.00272232
0.00265917
0.00260503
0.00255873
0.00251927
0.00248284
0.00244896
0.00241743
0.00238802
0.00236051
0.00233471
0.00231042
0.00228748
0.00226574
0.00224507
0.00222537
0.00220655
0.00218855
0.00217133
0.00215487
0.00213916
0.00212424
0.00211013
0.00209689
0.00208458
0.00207327
0.00206303
0.00205396
0.00204612
0.00203959
0.00203445
0.00203073
0.00202848
0.00202774
0.00202851
0.00203081
0.00203463
0.00203997
0.00204686
0.00205532
0.00206541
0.00207721
0.00209087
0.00210656
0.00212451
0.00214501
0.00216841
0.00219508
0.00222551
0.00226018
0.00229977
0.0023451
0.0023971
0.00245686
0.0025256
0.00260475
0.00269585
0.00280057
0.0029205
0.00305689
0.0032102
0.0033793
0.00356095
0.131415
0.141934
0.153148
0.164642
0.176312
0.188149
0.200192
0.212525
0.225268
0.238553
0.252521
0.267299
0.283
0.299712
0.317502
0.336413
0.356475
0.377703
0.400106
0.423685
0.448435
0.474346
0.501402
0.529577
0.558839
0.589145
0.620444
0.652672
0.685753
0.719602
0.754122
0.789204
0.82473
0.860573
0.896598
0.932665
0.968631
1.00435
1.03969
1.0745
1.10867
1.14208
1.17463
1.20625
1.23688
1.26649
1.29507
1.32264
1.34924
1.37492
1.39975
1.42382
1.44721
1.46999
1.49224
1.51401
1.53533
1.5562
1.5766
1.59645
1.61563
1.63387
1.65092
1.66653
1.6804
1.69218
1.70151
1.70798
1.71117
1.71064
1.70597
1.69674
1.68258
1.66316
1.63826
1.60772
1.57152
1.52979
1.48281
1.43101
1.37497
1.31533
1.25267
1.18741
1.11955
1.04844
0.972618
0.889722
0.796652
0.690128
0.567839
0.430781
0.287569
0.158072
0.0679273
0.0245671
0.0110393
0.00757396
0.00641574
0.00598186
0.00579507
0.00569694
0.00564253
0.00561052
0.00559
0.00554063
0.00545351
0.00533586
0.00519833
0.00505249
0.00490836
0.00477219
0.00464537
0.00452483
0.00440508
0.00428081
0.00414911
0.00401023
0.00386708
0.00372397
0.00358531
0.00345473
0.00333458
0.00322602
0.00312927
0.00304397
0.00296951
0.00290469
0.00284843
0.00279587
0.00274652
0.00270023
0.00265681
0.00261603
0.00257766
0.0025415
0.00250732
0.00247493
0.00244414
0.0024148
0.00238678
0.00235997
0.0023343
0.00230972
0.00228621
0.00226378
0.00224247
0.00222233
0.00220345
0.00218591
0.00216982
0.00215531
0.00214247
0.00213143
0.00212229
0.00211515
0.00211007
0.00210713
0.00210637
0.00210779
0.00211143
0.00211726
0.0021253
0.00213554
0.00214799
0.00216269
0.00217971
0.00219912
0.00222108
0.00224576
0.0022734
0.00230427
0.00233878
0.00237737
0.00242046
0.00246861
0.00252249
0.00258284
0.0026505
0.0027264
0.00281155
0.00290701
0.00301386
0.00313307
0.00326548
0.00341173
0.00357272
0.146609
0.158381
0.170877
0.183668
0.196603
0.209682
0.222959
0.236545
0.250582
0.265228
0.280638
0.296954
0.314296
0.332758
0.352412
0.37331
0.395486
0.418966
0.443764
0.46989
0.497346
0.526128
0.556227
0.58762
0.620278
0.654157
0.689199
0.725334
0.762471
0.800507
0.839318
0.878766
0.918694
0.958931
0.999293
1.03959
1.07962
1.11918
1.15807
1.19612
1.23314
1.26899
1.30356
1.33675
1.36853
1.39888
1.42784
1.4555
1.48196
1.50737
1.5319
1.55574
1.57908
1.60208
1.62491
1.6477
1.67052
1.6934
1.71634
1.73925
1.7621
1.78451
1.80615
1.82667
1.84569
1.86279
1.87751
1.88938
1.89793
1.90266
1.90312
1.8989
1.88964
1.87504
1.85492
1.82918
1.79786
1.76113
1.7193
1.67279
1.62216
1.56799
1.51092
1.45147
1.38998
1.32647
1.2605
1.19111
1.11679
1.0355
0.94494
0.842916
0.727895
0.600023
0.462996
0.326484
0.205935
0.116857
0.0639443
0.03813
0.0266773
0.0212529
0.0185331
0.0168859
0.0155379
0.0142154
0.0128447
0.0114376
0.0100477
0.00874367
0.0075898
0.00663176
0.00588751
0.00534591
0.00497249
0.0047201
0.00454064
0.00439516
0.00425938
0.00412323
0.00398595
0.00385082
0.00372173
0.00360167
0.00349229
0.00339415
0.00330705
0.00322999
0.00316195
0.00309751
0.00303629
0.0029783
0.00292344
0.00287158
0.00282254
0.00277614
0.00273218
0.00269045
0.00265076
0.00261293
0.00257681
0.00254227
0.00250922
0.0024776
0.00244737
0.00241855
0.00239115
0.00236525
0.00234093
0.00231829
0.00229745
0.00227853
0.00226166
0.00224697
0.00223458
0.00222458
0.00221705
0.00221205
0.00220961
0.00220973
0.00221241
0.00221761
0.0022253
0.00223542
0.00224796
0.00226288
0.0022802
0.00229995
0.00232221
0.0023471
0.00237479
0.00240549
0.00243945
0.00247707
0.00251872
0.00256482
0.00261586
0.00267243
0.00273517
0.00280484
0.00288227
0.00296842
0.00306437
0.00317137
0.00329098
0.00342523
0.00357706
0.161127
0.174023
0.187632
0.201532
0.215513
0.229597
0.243854
0.258428
0.273491
0.289225
0.3058
0.323364
0.34204
0.361924
0.383089
0.405591
0.429472
0.454764
0.481491
0.50967
0.539315
0.57043
0.603011
0.637046
0.672508
0.709356
0.747534
0.786966
0.827555
0.869184
0.911714
0.954981
0.998801
1.04297
1.08726
1.13144
1.17525
1.21845
1.26079
1.30203
1.34196
1.38039
1.41717
1.45222
1.48548
1.51698
1.54678
1.57503
1.60192
1.6277
1.65263
1.67703
1.70118
1.72539
1.74989
1.7749
1.80055
1.8269
1.85393
1.88153
1.90972
1.9382
1.96646
1.99405
2.02049
2.04527
2.06786
2.08771
2.10428
2.11706
2.12555
2.12931
2.12796
2.12122
2.1089
2.0909
2.06726
2.03814
2.00379
1.96461
1.92104
1.87363
1.82291
1.76943
1.7136
1.6557
1.59577
1.53357
1.46854
1.3998
1.3262
1.24643
1.15924
1.06363
0.959181
0.846361
0.726964
0.604771
0.486059
0.37878
0.288579
0.217283
0.166021
0.130587
0.105469
0.0864965
0.0711571
0.0580978
0.0466797
0.0366815
0.0280967
0.0209883
0.0153883
0.0112372
0.00836853
0.00653321
0.00544959
0.00485452
0.00453796
0.00435507
0.00422195
0.00410154
0.00398383
0.00386937
0.00376091
0.00366058
0.00356941
0.00348708
0.003413
0.00334166
0.00327283
0.00320676
0.00314352
0.00308313
0.00302553
0.00297065
0.00291835
0.00286847
0.00282087
0.00277539
0.0027319
0.00269029
0.00265046
0.00261237
0.002576
0.00254136
0.00250849
0.00247745
0.00244835
0.00242129
0.00239638
0.00237376
0.00235356
0.00233589
0.00232085
0.00230854
0.00229901
0.0022923
0.00228841
0.00228732
0.00228898
0.00229332
0.00230026
0.00230972
0.00232162
0.0023359
0.00235253
0.0023715
0.00239286
0.00241667
0.00244307
0.00247223
0.00250437
0.00253978
0.00257881
0.00262187
0.00266939
0.0027219
0.00278003
0.0028445
0.00291619
0.00299613
0.0030856
0.00318618
0.00329989
0.0034294
0.00357821
0.173653
0.18743
0.201856
0.216547
0.231229
0.245949
0.260801
0.275961
0.291633
0.308024
0.325313
0.343652
0.36316
0.383927
0.406026
0.429513
0.454435
0.480829
0.508729
0.538164
0.569154
0.601717
0.63586
0.671579
0.708858
0.747666
0.787953
0.829649
0.872661
0.916875
0.962147
1.00831
1.05517
1.10251
1.15008
1.19764
1.24489
1.29157
1.33739
1.38209
1.42541
1.46714
1.50711
1.5452
1.58135
1.61557
1.64796
1.67866
1.7079
1.73596
1.76317
1.78987
1.81644
1.8432
1.87048
1.89852
1.92752
1.95755
1.98863
2.02066
2.05344
2.08712
2.12129
2.15539
2.18888
2.22122
2.25185
2.28021
2.30576
2.32795
2.34627
2.36028
2.36957
2.37384
2.37285
2.36646
2.35466
2.3375
2.31516
2.2879
2.25605
2.22
2.18017
2.13696
2.09073
2.04176
1.9902
1.93605
1.87911
1.81899
1.75513
1.6868
1.61322
1.53362
1.44743
1.35441
1.25485
1.14968
1.04063
0.93018
0.818887
0.70706
0.601404
0.507086
0.426245
0.358098
0.300286
0.250271
0.206089
0.166535
0.13109
0.099767
0.072898
0.0508762
0.0338908
0.0217305
0.0137425
0.00896986
0.00639027
0.00512919
0.00456236
0.00430927
0.00417168
0.00406629
0.00396821
0.00387369
0.00378401
0.00370022
0.00362301
0.00354714
0.00347264
0.00340001
0.00332955
0.00326145
0.00319582
0.00313271
0.00307209
0.00301391
0.00295811
0.00290459
0.00285327
0.0028041
0.00275702
0.00271203
0.00266913
0.00262836
0.00258977
0.00255345
0.00251951
0.00248805
0.0024592
0.00243306
0.00240976
0.00238939
0.00237203
0.00235774
0.00234654
0.00233843
0.00233337
0.00233129
0.00233211
0.00233571
0.00234198
0.00235079
0.00236203
0.00237562
0.00239148
0.00240958
0.00242996
0.00245266
0.00247779
0.00250552
0.00253607
0.00256969
0.00260673
0.00264757
0.00269268
0.0027426
0.00279798
0.0028596
0.00292837
0.00300544
0.0030922
0.00319037
0.00330215
0.00343031
0.00357842
0.182674
0.196996
0.211848
0.226919
0.241875
0.256787
0.271764
0.287018
0.302779
0.319274
0.336693
0.355186
0.374865
0.395813
0.418096
0.441768
0.466875
0.493462
0.521568
0.551232
0.582486
0.615358
0.64987
0.686033
0.723844
0.763289
0.804334
0.846927
0.890993
0.936433
0.983124
1.03092
1.07963
1.12907
1.179
1.22917
1.27932
1.32918
1.37847
1.42691
1.47424
1.52025
1.56473
1.60753
1.64858
1.68783
1.72533
1.76117
1.79552
1.82857
1.86059
1.89186
1.92266
1.95328
1.98402
2.01511
2.04675
2.07911
2.11225
2.14622
2.18094
2.21629
2.2524
2.28924
2.3263
2.36313
2.39925
2.43415
2.46734
2.4983
2.52655
2.55162
2.57309
2.5906
2.60384
2.6126
2.61672
2.61614
2.61089
2.60104
2.58675
2.5682
2.5456
2.51917
2.48909
2.4555
2.41847
2.37794
2.33377
2.2857
2.23334
2.17622
2.11378
2.04546
1.97077
1.88932
1.80098
1.70597
1.60494
1.49906
1.38696
1.26709
1.14468
1.0249
0.911679
0.80713
0.711637
0.62435
0.543814
0.468513
0.397252
0.329397
0.265025
0.204987
0.150825
0.104439
0.0674807
0.0406275
0.023136
0.0130445
0.00791824
0.00562501
0.00471173
0.00436885
0.00421878
0.00411887
0.00402939
0.00394307
0.00386066
0.00377732
0.00369361
0.00361067
0.00352922
0.00344975
0.00337254
0.00329778
0.00322557
0.00315596
0.00308898
0.00302462
0.00296288
0.00290376
0.00284726
0.00279342
0.00274227
0.00269387
0.00264831
0.00260566
0.00256603
0.00252953
0.00249624
0.00246627
0.00243969
0.00241655
0.0023969
0.00238073
0.00236801
0.00235869
0.00235268
0.00234986
0.00235009
0.00235321
0.00235907
0.0023675
0.00237837
0.00239156
0.00240698
0.0024246
0.00244442
0.0024665
0.00249093
0.00251789
0.0025476
0.00258031
0.00261637
0.00265618
0.00270021
0.00274903
0.0028033
0.00286383
0.00293158
0.00300772
0.00309367
0.00319121
0.00330253
0.00343043
0.00357844
0.186946
0.201427
0.216277
0.231294
0.246088
0.260746
0.275385
0.290234
0.305546
0.321563
0.338485
0.356464
0.375604
0.39598
0.417649
0.440658
0.465051
0.490875
0.518174
0.546992
0.577375
0.609361
0.642985
0.678276
0.715249
0.75391
0.794248
0.836238
0.879834
0.924968
0.971553
1.01947
1.0686
1.11876
1.16978
1.22144
1.27354
1.32583
1.37807
1.43001
1.48142
1.53206
1.58173
1.63027
1.67751
1.72336
1.76776
1.81068
1.85214
1.89218
1.93089
1.96838
2.00477
2.04021
2.07487
2.10892
2.14253
2.17592
2.20925
2.24269
2.2764
2.31047
2.34496
2.37993
2.41558
2.45189
2.48865
2.5256
2.56241
2.5987
2.63406
2.66806
2.70028
2.7303
2.75777
2.78235
2.80378
2.82183
2.83637
2.84728
2.85452
2.85805
2.85787
2.85396
2.8463
2.83479
2.81931
2.79962
2.77544
2.74637
2.71195
2.67162
2.62483
2.57096
2.50948
2.43993
2.36202
2.27567
2.18111
2.07895
1.96683
1.84219
1.70939
1.57352
1.4394
1.31077
1.18987
1.07742
0.972899
0.874972
0.781903
0.691901
0.603417
0.515412
0.427658
0.34107
0.257983
0.182145
0.118052
0.0693753
0.0370738
0.0187178
0.00986439
0.00623389
0.00495094
0.00453587
0.00437655
0.00427467
0.00418393
0.00408942
0.00399053
0.00388959
0.00378879
0.00368962
0.00359293
0.00349921
0.00340871
0.00332157
0.00323789
0.00315771
0.00308108
0.00300803
0.00293861
0.00287285
0.00281081
0.00275254
0.00269811
0.00264758
0.00260102
0.00255849
0.00252004
0.00248571
0.0024555
0.0024294
0.00240737
0.00238935
0.00237522
0.00236486
0.0023581
0.00235477
0.00235467
0.00235759
0.00236333
0.0023717
0.00238252
0.00239566
0.00241102
0.00242854
0.00244824
0.00247015
0.00249439
0.00252112
0.00255056
0.002583
0.00261876
0.00265826
0.00270197
0.00275047
0.00280444
0.00286469
0.00293219
0.00300811
0.0030939
0.00319131
0.00330256
0.00343042
0.00357843
0.185944
0.200202
0.214652
0.229218
0.243473
0.257505
0.271422
0.285456
0.299864
0.314902
0.330782
0.347657
0.365633
0.384777
0.405136
0.42675
0.449657
0.473901
0.499526
0.526584
0.555123
0.585195
0.616847
0.650121
0.685053
0.721668
0.759982
0.799996
0.841699
0.885062
0.930037
0.97656
1.02455
1.07389
1.12447
1.17614
1.22874
1.2821
1.33602
1.3903
1.44474
1.49913
1.55325
1.6069
1.65988
1.71198
1.76303
1.81286
1.8613
1.90824
1.95354
1.99712
2.03891
2.07891
2.11714
2.15366
2.18863
2.22224
2.25473
2.2864
2.31756
2.34855
2.37965
2.41116
2.44329
2.47617
2.50984
2.54438
2.57989
2.61633
2.65357
2.69136
2.7294
2.76732
2.80474
2.84129
2.87661
2.91037
2.9423
2.97214
2.99969
3.02478
3.04726
3.06695
3.08368
3.09721
3.10725
3.11344
3.11529
3.11225
3.10363
3.08869
3.06661
3.03653
2.99759
2.94902
2.89013
2.82043
2.73967
2.64793
2.54231
2.41962
2.28318
2.13748
1.98757
1.8383
1.6937
1.55659
1.42845
1.30944
1.19868
1.09453
0.994851
0.897329
0.799706
0.700059
0.59714
0.490886
0.383103
0.278204
0.183366
0.106953
0.0545294
0.0250088
0.0115845
0.00664259
0.0051396
0.00472443
0.00457174
0.00446092
0.00434801
0.00422722
0.00410166
0.00397545
0.0038515
0.0037314
0.0036159
0.00350531
0.00339978
0.00329933
0.00320401
0.00311382
0.00302878
0.00294889
0.00287416
0.0028046
0.00274023
0.00268103
0.00262701
0.00257815
0.0025344
0.0024957
0.00246197
0.00243311
0.00240897
0.00238938
0.00237416
0.00236308
0.00235592
0.00235242
0.00235232
0.00235536
0.00236129
0.0023699
0.00238098
0.00239437
0.00240997
0.00242771
0.00244759
0.00246965
0.00249402
0.00252085
0.00255037
0.00258286
0.00261867
0.0026582
0.00270193
0.00275045
0.00280443
0.00286469
0.00293219
0.00300811
0.00309389
0.00319131
0.00330256
0.00343042
0.00357843
0.180059
0.193755
0.207474
0.221274
0.234704
0.247847
0.260784
0.273731
0.286938
0.300663
0.315126
0.330493
0.346872
0.364328
0.382902
0.402624
0.423525
0.445642
0.469017
0.493702
0.519748
0.547214
0.576155
0.606625
0.638675
0.672347
0.707678
0.744696
0.783418
0.82385
0.865984
0.909803
0.95527
1.00234
1.05094
1.101
1.15242
1.20508
1.25885
1.31359
1.36913
1.42527
1.4818
1.53851
1.59512
1.65138
1.70698
1.76162
1.81501
1.86682
1.91676
1.96456
2.00999
2.05285
2.09302
2.13047
2.16526
2.19752
2.22753
2.25563
2.28225
2.30789
2.33311
2.35845
2.38446
2.41167
2.44051
2.47104
2.50295
2.53641
2.57162
2.60864
2.64741
2.68773
2.72932
2.77182
2.81485
2.85802
2.90094
2.94326
2.98469
3.02497
3.06387
3.10122
3.13684
3.17056
3.20216
3.23133
3.25768
3.2807
3.29971
3.31389
3.32228
3.32375
3.31711
3.30107
3.27436
3.23579
3.18429
3.11906
3.03701
2.93473
2.81377
2.67696
2.52815
2.37183
2.21268
2.05511
1.90285
1.75859
1.62386
1.49889
1.38283
1.27399
1.17006
1.06844
0.966398
0.861218
0.750439
0.632344
0.506957
0.377655
0.252919
0.146199
0.0705658
0.028991
0.011832
0.00647993
0.00516079
0.00481822
0.00466632
0.00453091
0.00438628
0.00423482
0.00408282
0.00393476
0.00379285
0.00365795
0.00353026
0.00340976
0.00329637
0.00318998
0.00309049
0.00299784
0.00291191
0.00283264
0.00275992
0.00269366
0.00263374
0.00258003
0.00253238
0.00249063
0.00245459
0.00242404
0.00239876
0.00237848
0.00236295
0.00235186
0.00234491
0.0023418
0.0023422
0.00234583
0.0023524
0.00236166
0.00237338
0.0023874
0.0024036
0.0024219
0.00244232
0.00246489
0.00248973
0.00251701
0.00254697
0.00257987
0.00261608
0.00265599
0.00270009
0.00274896
0.00280326
0.00286381
0.00293157
0.00300771
0.00309367
0.00319121
0.00330253
0.00343043
0.00357844
0.170401
0.183273
0.196023
0.20883
0.221245
0.233338
0.245158
0.25689
0.268762
0.281027
0.293909
0.307582
0.322164
0.337722
0.354293
0.371899
0.390563
0.410313
0.431186
0.45323
0.476498
0.501048
0.526941
0.554238
0.582998
0.613275
0.645122
0.678583
0.713697
0.750497
0.789006
0.829239
0.871201
0.914887
0.960282
1.00736
1.05607
1.10635
1.15814
1.21131
1.26576
1.3213
1.37776
1.43489
1.49242
1.55002
1.60735
1.66399
1.71953
1.77355
1.82561
1.8753
1.92223
1.96605
2.0065
2.0434
2.07667
2.10636
2.13265
2.15583
2.17634
2.19468
2.2115
2.2275
2.24343
2.26009
2.27829
2.29887
2.32259
2.34931
2.37867
2.41102
2.44647
2.485
2.52642
2.57043
2.61659
2.66442
2.71335
2.76282
2.81229
2.86127
2.90935
2.95622
3.00168
3.04562
3.08801
3.12889
3.16826
3.2061
3.24227
3.27643
3.30804
3.33628
3.36003
3.37791
3.38827
3.38927
3.37898
3.35544
3.31587
3.25749
3.17962
3.0823
2.96641
2.83384
2.68756
2.53157
2.37057
2.20941
2.05245
1.90292
1.76265
1.63209
1.51055
1.39659
1.28838
1.18375
1.08013
0.9743
0.862311
0.739884
0.603965
0.45574
0.304579
0.169924
0.0745152
0.0261956
0.00977048
0.00565387
0.00489055
0.00467952
0.00451768
0.0043497
0.00417762
0.00400892
0.00384806
0.00369667
0.00355498
0.00342272
0.00329951
0.003185
0.00307886
0.0029808
0.00289056
0.00280789
0.00273258
0.00266439
0.00260312
0.00254853
0.0025004
0.00245851
0.0024226
0.00239243
0.00236772
0.00234818
0.00233351
0.00232339
0.00231749
0.00231548
0.00231702
0.00232181
0.00232953
0.00233993
0.00235278
0.0023679
0.00238517
0.00240454
0.002426
0.00244962
0.0024755
0.00250384
0.00253486
0.00256886
0.00260617
0.00264721
0.00269246
0.00274247
0.00279791
0.00285956
0.00292835
0.00300543
0.00309219
0.00319037
0.00330215
0.00343031
0.00357842
0.15837
0.170249
0.181888
0.193567
0.204858
0.215817
0.226467
0.236958
0.247491
0.258298
0.269604
0.281588
0.294376
0.308039
0.322612
0.33811
0.354548
0.371946
0.390335
0.409756
0.430261
0.451905
0.474751
0.498861
0.524299
0.551124
0.579397
0.609172
0.640502
0.673432
0.708007
0.744262
0.782229
0.821933
0.863389
0.906604
0.951573
0.998275
1.04667
1.0967
1.14826
1.20123
1.25544
1.31068
1.36666
1.42306
1.4795
1.53554
1.59071
1.64452
1.69647
1.74606
1.79279
1.83621
1.87591
1.91157
1.94302
1.97017
1.9931
2.01199
2.02717
2.0391
2.04835
2.05558
2.06153
2.06703
2.07296
2.08026
2.08995
2.10311
2.12046
2.14165
2.16714
2.19719
2.23191
2.27122
2.3149
2.36249
2.4134
2.46687
2.52199
2.57781
2.63334
2.68766
2.73995
2.78962
2.83628
2.87986
2.92055
2.95882
2.99531
3.03077
3.06589
3.10114
3.13662
3.17195
3.2061
3.23743
3.26367
3.28209
3.29057
3.28791
3.27168
3.23878
3.18603
3.11089
3.01234
2.89148
2.75175
2.59847
2.4379
2.27602
2.11755
1.96553
1.82138
1.68544
1.55758
1.43759
1.32526
1.2199
1.11959
1.02001
0.913954
0.792171
0.647081
0.479232
0.303945
0.151882
0.0546196
0.0145057
0.00576879
0.00465554
0.00440882
0.00422303
0.0040401
0.00386384
0.00369927
0.0035477
0.00340863
0.00328105
0.00316396
0.00305647
0.00295781
0.00286736
0.00278458
0.00270902
0.00264031
0.00257814
0.00252223
0.00247238
0.00242838
0.00239006
0.00235724
0.00232974
0.00230737
0.0022899
0.0022771
0.00226869
0.00226438
0.00226388
0.00226687
0.00227305
0.00228214
0.00229389
0.00230808
0.00232455
0.0023432
0.00236398
0.0023869
0.00241205
0.00243957
0.00246964
0.00250252
0.00253851
0.00257797
0.00262132
0.00266904
0.00272169
0.00277991
0.00284444
0.00291616
0.00299611
0.00308559
0.00318617
0.00329989
0.0034294
0.00357821
0.14522
0.156029
0.166505
0.177002
0.187126
0.196925
0.206404
0.215684
0.224938
0.234379
0.24422
0.254641
0.26577
0.277679
0.290401
0.303947
0.318324
0.333545
0.349633
0.366625
0.384568
0.403515
0.423526
0.444664
0.466989
0.490566
0.515455
0.541715
0.569403
0.598573
0.629277
0.661563
0.695476
0.731055
0.768335
0.807344
0.848099
0.890603
0.934845
0.980789
1.02837
1.0775
1.12802
1.17976
1.23246
1.28582
1.33947
1.39297
1.44587
1.49766
1.54783
1.59584
1.64112
1.68314
1.7214
1.75546
1.78511
1.81023
1.83081
1.84681
1.85857
1.86647
1.87099
1.87268
1.87218
1.87019
1.86748
1.86488
1.86329
1.86366
1.86708
1.87448
1.88596
1.9021
1.9234
1.9503
1.98314
2.02219
2.06714
2.11752
2.17267
2.23167
2.29327
2.356
2.41816
2.47796
2.53372
2.584