/*--------------------------------*- C++ -*----------------------------------*\
| =========                 |                                                 |
| \\      /  F ield         | OpenFOAM: The Open Source CFD Toolbox           |
|  \\    /   O peration     | Version:  2406                                  |
|   \\  /    A nd           | Website:  www.openfoam.com                      |
|    \\/     M anipulation  |                                                 |
\*---------------------------------------------------------------------------*/
FoamFile
{
    version     2.0;
    format      ascii;
    arch        "LSB;label=32;scalar=64";
    class       volScalarField;
    location    "500";
    object      nut;
}
// * * * * * * * * * * * * * * * * * * * * * * * * * * * * * * * * * * * * * //

dimensions      [0 2 -1 0 0 0 0];

internalField   nonuniform List<scalar> 
5619
(
5.16763e-05
5.31194e-05
5.45255e-05
5.5939e-05
5.73049e-05
5.86202e-05
5.98818e-05
6.10997e-05
6.22904e-05
6.3475e-05
6.46753e-05
6.591e-05
6.71931e-05
6.85329e-05
6.99326e-05
7.13916e-05
7.29067e-05
7.44733e-05
7.60863e-05
7.77408e-05
7.94318e-05
8.11547e-05
8.2905e-05
8.46786e-05
8.64714e-05
8.82797e-05
9.00999e-05
9.19291e-05
9.37646e-05
9.56046e-05
9.74479e-05
9.92939e-05
0.000101143
0.000102996
0.000104855
0.000106722
0.000108599
0.000110488
0.000112392
0.000114311
0.000116246
0.000118196
0.000120159
0.000122133
0.000124112
0.000126091
0.000128065
0.000130025
0.000131965
0.000133876
0.000135752
0.000137586
0.000139373
0.000141108
0.000142789
0.000144418
0.000146
0.000147545
0.000149069
0.000150555
0.000151961
0.000153281
0.000154509
0.000155636
0.000156654
0.000157554
0.000158321
0.000158941
0.000159392
0.000159648
0.000159676
0.00015943
0.000158852
0.000157864
0.00015636
0.000154196
0.000151172
0.000147008
0.000141309
0.000133503
0.000122775
0.000107987
8.77824e-05
6.1758e-05
3.57966e-05
2.81671e-05
2.90084e-05
2.9369e-05
2.95562e-05
2.96837e-05
2.97671e-05
2.98145e-05
2.98325e-05
2.98257e-05
2.97976e-05
2.97514e-05
2.96894e-05
2.96132e-05
2.95245e-05
2.94242e-05
2.9313e-05
2.91789e-05
2.90189e-05
2.88298e-05
2.86086e-05
2.83526e-05
2.80705e-05
2.7767e-05
2.74448e-05
2.71074e-05
2.67588e-05
2.64037e-05
2.60469e-05
2.56934e-05
2.5348e-05
2.5015e-05
2.4698e-05
2.43998e-05
2.41223e-05
2.38666e-05
2.3633e-05
2.34211e-05
2.323e-05
2.30584e-05
2.29048e-05
2.27676e-05
2.26455e-05
2.25367e-05
2.24403e-05
2.23457e-05
2.22523e-05
2.21598e-05
2.20676e-05
2.19752e-05
2.18824e-05
2.17888e-05
2.16939e-05
2.15976e-05
2.14994e-05
2.13993e-05
2.12969e-05
2.11921e-05
2.10848e-05
2.09748e-05
2.08622e-05
2.07469e-05
2.06291e-05
2.05089e-05
2.03865e-05
2.02623e-05
2.01366e-05
2.001e-05
1.9883e-05
1.97564e-05
1.96308e-05
1.95072e-05
1.93865e-05
1.92696e-05
1.91576e-05
1.90515e-05
1.89524e-05
1.88612e-05
1.87787e-05
1.87057e-05
1.86426e-05
1.85899e-05
1.85477e-05
1.85158e-05
1.8494e-05
1.84817e-05
1.84784e-05
1.84831e-05
1.84953e-05
1.85138e-05
1.8538e-05
1.8568e-05
1.86052e-05
1.86542e-05
1.87243e-05
1.8832e-05
1.90022e-05
1.92662e-05
1.965e-05
2.01489e-05
2.06659e-05
2.08467e-05
1.95834e-05
0.000241542
0.000252316
0.000265779
0.000279348
0.000293339
0.000307606
0.00032214
0.000336896
0.000351853
0.00036701
0.000382396
0.000398065
0.000414079
0.000430494
0.000447343
0.000464632
0.000482337
0.000500414
0.000518802
0.000537429
0.000556216
0.000575081
0.000593941
0.00061271
0.000631305
0.000649644
0.000667646
0.000685237
0.00070235
0.000718928
0.000734926
0.000750314
0.00076508
0.000779232
0.000792797
0.000805826
0.000818387
0.000830571
0.000842484
0.000854243
0.00086598
0.00087783
0.00088993
0.000902416
0.000915421
0.000929067
0.000943467
0.000958721
0.000974913
0.000992108
0.00101035
0.00102967
0.00105004
0.00107145
0.00109382
0.00111703
0.00114093
0.00116532
0.00118995
0.00121486
0.00124041
0.00126651
0.00129306
0.00131997
0.00134712
0.00137438
0.0014016
0.0014286
0.00145517
0.00148103
0.00150585
0.00152921
0.00155054
0.0015691
0.00158388
0.00159349
0.00159595
0.00158846
0.00156698
0.00152561
0.00145568
0.00134451
0.00117396
0.000921065
0.00057518
0.000212008
4.48356e-05
2.25137e-05
2.16e-05
2.16572e-05
2.18449e-05
2.2105e-05
2.24159e-05
2.27626e-05
2.3132e-05
2.3513e-05
2.38966e-05
2.42758e-05
2.46452e-05
2.50009e-05
2.53398e-05
2.56922e-05
2.60516e-05
2.64077e-05
2.67455e-05
2.70427e-05
2.73286e-05
2.76444e-05
2.79891e-05
2.83601e-05
2.87541e-05
2.91672e-05
2.95947e-05
3.00319e-05
3.04738e-05
3.09152e-05
3.13513e-05
3.17772e-05
3.21887e-05
3.25822e-05
3.29547e-05
3.33041e-05
3.36292e-05
3.39294e-05
3.42049e-05
3.44562e-05
3.46842e-05
3.48901e-05
3.50752e-05
3.52596e-05
3.54441e-05
3.56297e-05
3.58173e-05
3.60076e-05
3.62016e-05
3.63999e-05
3.66035e-05
3.6813e-05
3.70291e-05
3.72525e-05
3.74837e-05
3.77233e-05
3.79717e-05
3.82294e-05
3.84964e-05
3.87729e-05
3.90587e-05
3.93535e-05
3.96568e-05
3.99678e-05
4.02852e-05
4.06076e-05
4.09331e-05
4.12594e-05
4.15838e-05
4.1903e-05
4.22135e-05
4.25111e-05
4.27917e-05
4.30503e-05
4.32822e-05
4.34821e-05
4.3645e-05
4.37656e-05
4.38389e-05
4.38596e-05
4.38223e-05
4.37213e-05
4.35496e-05
4.32989e-05
4.29577e-05
4.2512e-05
4.19921e-05
4.13705e-05
4.06109e-05
3.96653e-05
3.84731e-05
3.6964e-05
3.50714e-05
3.27604e-05
3.00763e-05
2.72041e-05
2.4511e-05
2.25527e-05
2.21281e-05
2.48023e-05
3.63038e-05
0.000669625
0.000701642
0.000739959
0.000778124
0.000816793
0.000855635
0.000894651
0.00093375
0.00097289
0.00101209
0.00105144
0.00109112
0.00113134
0.00117227
0.00121403
0.00125668
0.00130019
0.00134445
0.00138934
0.00143469
0.00148031
0.00152601
0.0015716
0.00161688
0.00166166
0.00170572
0.0017489
0.00179101
0.0018319
0.00187142
0.00190948
0.00194601
0.00198101
0.00201451
0.0020466
0.00207745
0.00210726
0.00213628
0.00216482
0.0021932
0.00222177
0.00225088
0.00228088
0.00231207
0.00234476
0.0023792
0.0024156
0.00245411
0.00249484
0.00253784
0.0025831
0.00263055
0.00268004
0.0027314
0.00278436
0.00283865
0.00289392
0.00294983
0.00300606
0.00306297
0.00312021
0.00317733
0.00323394
0.00328959
0.00334382
0.00339608
0.0034458
0.00349227
0.00353469
0.00357214
0.0036035
0.0036274
0.00364218
0.00364574
0.00363542
0.00360781
0.00355849
0.00348171
0.00337004
0.003214
0.00300186
0.00271991
0.00235435
0.00189701
0.00135881
0.000791323
0.000310225
7.64462e-05
3.32843e-05
3.22104e-05
3.42978e-05
3.65988e-05
3.89211e-05
4.11946e-05
4.33692e-05
4.54046e-05
4.72712e-05
4.89502e-05
5.04341e-05
5.17235e-05
5.28266e-05
5.38451e-05
5.47452e-05
5.54873e-05
5.60303e-05
5.63739e-05
5.66417e-05
5.68238e-05
5.69092e-05
5.68925e-05
5.67755e-05
5.65677e-05
5.62858e-05
5.59518e-05
5.55901e-05
5.52244e-05
5.48754e-05
5.45585e-05
5.42837e-05
5.40558e-05
5.38751e-05
5.37388e-05
5.3642e-05
5.35788e-05
5.35431e-05
5.35289e-05
5.35313e-05
5.35452e-05
5.35672e-05
5.35975e-05
5.36352e-05
5.36802e-05
5.37319e-05
5.37904e-05
5.38554e-05
5.39269e-05
5.4005e-05
5.40898e-05
5.41813e-05
5.42798e-05
5.43855e-05
5.44985e-05
5.4619e-05
5.47471e-05
5.48829e-05
5.50262e-05
5.51767e-05
5.53342e-05
5.54978e-05
5.56666e-05
5.58391e-05
5.60135e-05
5.61874e-05
5.63578e-05
5.65208e-05
5.66721e-05
5.68062e-05
5.69173e-05
5.69984e-05
5.70418e-05
5.70393e-05
5.6982e-05
5.68606e-05
5.66657e-05
5.63879e-05
5.60179e-05
5.55469e-05
5.49665e-05
5.42693e-05
5.34489e-05
5.25006e-05
5.14546e-05
5.03315e-05
4.91315e-05
4.78644e-05
4.6554e-05
4.52462e-05
4.40196e-05
4.2999e-05
4.23709e-05
4.24001e-05
4.34516e-05
4.60459e-05
5.10417e-05
6.02111e-05
7.81215e-05
0.000121797
0.00132099
0.0013802
0.00144986
0.00151864
0.00158727
0.00165501
0.00172178
0.00178743
0.00185201
0.00191573
0.00197901
0.00204236
0.00210633
0.00217136
0.00223775
0.00230562
0.00237492
0.00244551
0.00251713
0.00258949
0.00266229
0.0027352
0.00280789
0.00288003
0.00295131
0.00302141
0.00309004
0.00315691
0.00322178
0.00328447
0.00334484
0.00340283
0.00345847
0.00351186
0.00356322
0.00361286
0.00366116
0.00370858
0.00375564
0.00380288
0.00385086
0.00390014
0.0039512
0.00400453
0.00406049
0.00411939
0.00418145
0.00424679
0.00431541
0.00438725
0.00446212
0.00453976
0.00461983
0.00470192
0.00478554
0.0048702
0.00495534
0.00504042
0.00512488
0.00520887
0.00529115
0.00537073
0.00544672
0.0055182
0.00558418
0.00564362
0.00569533
0.00573802
0.00577024
0.00579033
0.00579639
0.00578621
0.0057572
0.00570626
0.00562973
0.00552323
0.00538163
0.00519897
0.00496863
0.00468374
0.00433802
0.00392722
0.00345095
0.00291407
0.00232647
0.00170298
0.00107278
0.000510463
0.00016493
8.12061e-05
8.89546e-05
9.77181e-05
0.000104085
0.000109354
0.000113773
0.000117475
0.000120552
0.000123091
0.000125168
0.000126844
0.000128175
0.000129296
0.000130158
0.000130707
0.000130879
0.000130699
0.000130161
0.000129208
0.000127791
0.000125883
0.000123489
0.000120648
0.000117437
0.000113964
0.000110356
0.000106741
0.000103236
9.99339e-05
9.68987e-05
9.41669e-05
9.17506e-05
8.96437e-05
8.78273e-05
8.62752e-05
8.49578e-05
8.38451e-05
8.29086e-05
8.21207e-05
8.14577e-05
8.08428e-05
8.02679e-05
7.97281e-05
7.92186e-05
7.87352e-05
7.82744e-05
7.78332e-05
7.74088e-05
7.69991e-05
7.66023e-05
7.62169e-05
7.58417e-05
7.54759e-05
7.5119e-05
7.47706e-05
7.44307e-05
7.40992e-05
7.37764e-05
7.34627e-05
7.31583e-05
7.28636e-05
7.25788e-05
7.23037e-05
7.20382e-05
7.17816e-05
7.15328e-05
7.12902e-05
7.10517e-05
7.0815e-05
7.05772e-05
7.03353e-05
7.00864e-05
6.9828e-05
6.95584e-05
6.92775e-05
6.8987e-05
6.86912e-05
6.83978e-05
6.81181e-05
6.78683e-05
6.76696e-05
6.75497e-05
6.76227e-05
6.79317e-05
6.85417e-05
6.95385e-05
7.10332e-05
7.31675e-05
7.61191e-05
8.01068e-05
8.53979e-05
9.23254e-05
0.000101341
0.000113167
0.00012918
0.000152363
0.000189886
0.000263035
0.00213657
0.00222556
0.00232886
0.00243014
0.00252984
0.00262676
0.00272071
0.00281162
0.00289982
0.00298592
0.00307085
0.00315563
0.00324122
0.00332838
0.00341759
0.00350903
0.00360261
0.00369809
0.0037951
0.00389321
0.00399197
0.00409091
0.00418958
0.00428753
0.00438433
0.00447957
0.00457285
0.00466383
0.00475222
0.0048378
0.00492043
0.00500009
0.00507685
0.00515091
0.00522258
0.00529229
0.00536057
0.00542801
0.00549526
0.00556301
0.00563193
0.00570264
0.00577572
0.00585167
0.00593086
0.00601355
0.00609988
0.00618984
0.00628332
0.00638003
0.00647961
0.00658157
0.00668531
0.00679017
0.00689542
0.00700025
0.00710382
0.00720525
0.00730356
0.00739819
0.00748788
0.00757106
0.00764645
0.00771277
0.00776866
0.0078127
0.00784335
0.00785893
0.0078576
0.00783735
0.00779593
0.00773087
0.00763944
0.00751863
0.00736518
0.00717567
0.00694666
0.00667489
0.00635773
0.00599362
0.00558268
0.00512703
0.00463072
0.00409853
0.0035339
0.00293714
0.00230663
0.00164747
0.000994578
0.000448602
0.000163973
0.000127577
0.000191852
0.000232013
0.000243057
0.000246803
0.000248918
0.000250628
0.000252206
0.000253678
0.000255046
0.000256426
0.00025774
0.000258886
0.000259751
0.000260515
0.000261051
0.000261169
0.00026063
0.00025917
0.000256541
0.000252568
0.000247196
0.000240528
0.00023281
0.000224394
0.000215665
0.000206987
0.000198654
0.000190873
0.00018377
0.000177404
0.000171779
0.000166865
0.000162613
0.000158959
0.000155838
0.000153177
0.00015091
0.000148794
0.000146802
0.000144921
0.000143134
0.00014143
0.000139795
0.000138221
0.000136697
0.000135216
0.000133772
0.000132359
0.000130974
0.000129612
0.000128272
0.000126953
0.000125656
0.000124381
0.000123131
0.000121909
0.000120719
0.000119567
0.000118458
0.000117399
0.000116397
0.00011546
0.000114596
0.000113814
0.000113124
0.000112534
0.000112056
0.0001117
0.000111479
0.000111403
0.000111489
0.00011175
0.000112206
0.000112874
0.000113777
0.000114938
0.000116386
0.000118151
0.000120267
0.000122968
0.000126273
0.000130247
0.000134973
0.000140546
0.000147081
0.000154714
0.000163617
0.000174021
0.000186272
0.00020092
0.0002189
0.000241842
0.000272641
0.000316374
0.000381118
0.00305714
0.00317668
0.0033133
0.00344634
0.00357565
0.00369971
0.00381839
0.00393191
0.00404105
0.00414702
0.0042513
0.00435544
0.00446078
0.00456837
0.0046788
0.00479226
0.00490863
0.00502756
0.00514855
0.00527106
0.0053945
0.00551831
0.00564192
0.00576481
0.00588645
0.00600636
0.0061241
0.00623929
0.00635161
0.00646082
0.00656678
0.00666948
0.006769
0.00686556
0.00695947
0.00705118
0.0071412
0.00723011
0.00731854
0.00740714
0.00749651
0.00758723
0.0076798
0.00777463
0.007872
0.00797206
0.00807484
0.00818022
0.00828792
0.00839754
0.00850855
0.00862031
0.00873207
0.00884299
0.00895215
0.00905859
0.00916124
0.00925904
0.00935085
0.00943551
0.00951236
0.00957967
0.00963605
0.00968016
0.00971061
0.00972595
0.00972462
0.00970498
0.00966525
0.00960357
0.00951797
0.00940638
0.00926672
0.0090969
0.0088949
0.00865892
0.0083875
0.00807969
0.00773528
0.00735498
0.00694048
0.00649447
0.00602017
0.00552061
0.00499741
0.00444955
0.00387249
0.00325877
0.00260157
0.00190467
0.00120454
0.000602525
0.000245902
0.000155081
0.000201937
0.000271429
0.000298862
0.000303752
0.000303881
0.000303577
0.000303654
0.000304298
0.000305439
0.000306984
0.000308856
0.000312565
0.000318775
0.000327499
0.000338421
0.000350815
0.000363506
0.00037496
0.000383573
0.000388091
0.000387959
0.000383445
0.000375452
0.000365171
0.000353746
0.000342079
0.000330784
0.000320222
0.000310579
0.000301922
0.000294249
0.000287518
0.000281666
0.0002766
0.00027222
0.000268114
0.000264237
0.000260566
0.000257079
0.000253755
0.000250574
0.000247517
0.000244567
0.000241709
0.000238928
0.000236214
0.000233558
0.000230952
0.000228391
0.000225874
0.000223399
0.000220969
0.000218588
0.000216262
0.000214
0.000211813
0.000209712
0.000207713
0.00020583
0.000204081
0.000202483
0.000201055
0.000199816
0.000198785
0.000197983
0.000197429
0.000197141
0.000197141
0.000197445
0.000198074
0.000199045
0.000200378
0.00020209
0.000204202
0.000206734
0.00020971
0.000213161
0.000217167
0.000221913
0.00022736
0.00023355
0.000240545
0.000248429
0.000257318
0.000267371
0.000278818
0.000291983
0.000307326
0.000325488
0.000347316
0.000373771
0.000405362
0.000440263
0.00402478
0.00417444
0.00434238
0.00450488
0.00466092
0.00480897
0.00494917
0.00508224
0.00520963
0.00533315
0.00545487
0.00557675
0.00570044
0.00582712
0.00595746
0.00609165
0.0062295
0.00637057
0.00651428
0.00666
0.00680707
0.00695485
0.00710272
0.0072501
0.00739643
0.00754119
0.00768391
0.00782418
0.00796163
0.00809601
0.00822711
0.00835484
0.0084792
0.00860028
0.00871826
0.00883339
0.00894599
0.00905644
0.00916512
0.00927244
0.00937879
0.00948452
0.00958992
0.00969522
0.00980057
0.00990602
0.0100115
0.0101169
0.0102219
0.0103262
0.0104293
0.0105307
0.0106298
0.0107259
0.0108182
0.0109059
0.0109883
0.0110643
0.0111332
0.011194
0.0112467
0.0112898
0.0113221
0.0113424
0.0113494
0.0113418
0.0113181
0.011277
0.0112169
0.011136
0.0110329
0.0109057
0.0107531
0.0105735
0.0103657
0.0101287
0.00986165
0.00956446
0.00923732
0.00888103
0.00849697
0.00808702
0.00765334
0.00719805
0.00672261
0.00622713
0.00570958
0.0051653
0.00458696
0.00396566
0.00329372
0.00257122
0.00182047
0.00110843
0.000559417
0.000264148
0.000176759
0.000167425
0.000171415
0.000172656
0.00017194
0.000170995
0.000170316
0.000169986
0.000169975
0.000172066
0.000177207
0.000186155
0.000200017
0.000220174
0.000248023
0.000284346
0.000328258
0.000376101
0.000421498
0.000457563
0.000480138
0.000489302
0.000488169
0.000480674
0.000470066
0.000458461
0.000447025
0.000436314
0.000426551
0.000417797
0.000410041
0.000403208
0.000397188
0.000391498
0.000386087
0.000380942
0.000376043
0.00037137
0.000366904
0.000362622
0.000358504
0.000354531
0.000350684
0.000346947
0.000343306
0.00033975
0.00033627
0.000332863
0.000329524
0.000326257
0.000323064
0.000319953
0.000316934
0.000314021
0.000311228
0.000308572
0.000306073
0.00030375
0.000301625
0.000299718
0.00029805
0.000296642
0.000295512
0.00029468
0.00029416
0.00029397
0.000294121
0.000294627
0.000295499
0.000296748
0.000298382
0.000300414
0.000302854
0.000305716
0.000309015
0.000312772
0.000317067
0.000321984
0.000327505
0.000333671
0.000340536
0.000348174
0.000356677
0.000366159
0.000376748
0.000388576
0.000401736
0.000416199
0.000431635
0.000447095
0.000460657
0.0049829
0.0051614
0.00535777
0.00554667
0.005726
0.00589451
0.00605281
0.00620239
0.00634541
0.00648436
0.00662178
0.00675994
0.00690065
0.00704514
0.00719408
0.00734761
0.00750551
0.00766729
0.00783234
0.00799998
0.00816953
0.00834034
0.00851176
0.00868321
0.00885411
0.00902392
0.00919214
0.0093583
0.00952199
0.00968281
0.00984045
0.00999462
0.0101451
0.0102917
0.0104343
0.0105728
0.0107072
0.0108373
0.0109632
0.0110849
0.0112024
0.0113157
0.0114248
0.0115297
0.0116305
0.0117271
0.0118196
0.0119079
0.0119922
0.0120724
0.0121485
0.0122207
0.0122888
0.0123529
0.012413
0.0124688
0.0125202
0.0125669
0.0126085
0.0126445
0.0126761
0.0127018
0.0127202
0.0127302
0.0127303
0.0127192
0.0126954
0.0126572
0.0126031
0.0125313
0.0124403
0.0123285
0.0121945
0.012037
0.0118549
0.0116475
0.0114142
0.0111549
0.0108699
0.0105597
0.0102253
0.00986819
0.00948975
0.00909156
0.00867493
0.00824056
0.00778817
0.00731609
0.006821
0.00629793
0.00574051
0.00514186
0.00449595
0.00380042
0.00306244
0.00230912
0.00159755
0.00101239
0.000618117
0.000402613
0.000297527
0.000242692
0.000212196
0.000192805
0.000177611
0.000163924
0.000151025
0.000139156
0.000129113
0.000122065
0.000119553
0.000123651
0.000137304
0.000164658
0.000210615
0.000277958
0.000361324
0.000443827
0.000506073
0.000540378
0.000552005
0.000550283
0.000542448
0.000532572
0.000522541
0.000513108
0.000504526
0.000496814
0.00048989
0.000483262
0.000476895
0.00047079
0.000464942
0.000459341
0.000453974
0.000448827
0.00044388
0.000439117
0.000434519
0.000430069
0.000425752
0.000421555
0.00041747
0.000413491
0.000409613
0.000405838
0.000402171
0.000398618
0.000395191
0.000391903
0.000388769
0.000385806
0.000383034
0.000380471
0.000378137
0.000376049
0.000374225
0.000372679
0.000371425
0.000370472
0.000369828
0.000369498
0.000369486
0.000369793
0.000370417
0.00037136
0.000372618
0.000374192
0.00037608
0.000378285
0.000380809
0.000383657
0.000386836
0.000390396
0.000394365
0.000398732
0.000403507
0.000408702
0.000414325
0.000420375
0.000426831
0.000433639
0.000440688
0.000447783
0.00045462
0.00046078
0.000465842
0.00587589
0.00608121
0.00630246
0.00651418
0.006713
0.00689821
0.00707107
0.00723394
0.00738981
0.00754182
0.0076929
0.0078455
0.00800146
0.00816198
0.00832765
0.00849857
0.00867449
0.00885491
0.00903925
0.00922683
0.009417
0.00960914
0.00980262
0.00999686
0.0101913
0.0103854
0.0105785
0.0107702
0.0109599
0.011147
0.011331
0.0115114
0.0116876
0.0118591
0.0120253
0.0121857
0.0123396
0.0124867
0.0126263
0.0127579
0.0128811
0.0129956
0.013101
0.0131971
0.013284
0.0133616
0.0134302
0.0134903
0.0135425
0.0135874
0.013626
0.0136592
0.0136881
0.0137137
0.013737
0.0137587
0.0137796
0.0137999
0.0138197
0.0138388
0.0138586
0.0138783
0.0138963
0.0139107
0.0139199
0.013922
0.0139153
0.0138979
0.0138679
0.0138236
0.0137633
0.0136853
0.0135883
0.0134711
0.0133326
0.0131721
0.0129893
0.0127839
0.0125562
0.0123067
0.0120359
0.011745
0.011435
0.011107
0.0107619
0.0104007
0.0100235
0.00962984
0.00921864
0.00878777
0.00833428
0.00785461
0.00734495
0.00680191
0.00622329
0.0056091
0.0049631
0.00429515
0.00362429
0.00297997
0.00238582
0.00186395
0.00145131
0.00114739
0.000925103
0.000755175
0.00061767
0.000501523
0.000401487
0.000315712
0.000244039
0.000186837
0.000144293
0.000116243
0.000102636
0.00010478
0.000127212
0.000178734
0.000267095
0.000381761
0.000486315
0.000551018
0.0005777
0.000582504
0.000577988
0.000570438
0.00056239
0.000554695
0.000547554
0.000540576
0.000533765
0.000527146
0.000520735
0.00051454
0.000508561
0.000502794
0.000497232
0.000491862
0.000486672
0.000481651
0.000476785
0.000472066
0.000467486
0.00046304
0.000458729
0.000454553
0.00045052
0.000446637
0.000442916
0.000439371
0.000436017
0.000432871
0.000429949
0.000427268
0.000424842
0.000422685
0.000420808
0.000419217
0.000417917
0.000416908
0.000416186
0.000415747
0.000415579
0.000415674
0.000416019
0.0004166
0.000417407
0.000418427
0.00041965
0.000421069
0.000422675
0.000424464
0.000426431
0.000428573
0.000430905
0.000433428
0.000436126
0.000438987
0.000441993
0.000445121
0.000448341
0.000451609
0.000454871
0.000458068
0.00046114
0.000464056
0.000466849
0.00664758
0.00687676
0.00711849
0.00734877
0.00756277
0.00776056
0.00794407
0.00811662
0.00828204
0.0084441
0.00860606
0.00877043
0.00893899
0.00911281
0.00929236
0.0094777
0.00966854
0.00986443
0.0100648
0.0102691
0.0104767
0.0106871
0.0108996
0.0111137
0.0113289
0.0115446
0.0117601
0.0119749
0.0121882
0.0123994
0.0126076
0.0128121
0.013012
0.0132063
0.013394
0.0135743
0.013746
0.0139081
0.0140596
0.0141996
0.0143272
0.0144417
0.0145425
0.0146294
0.0147023
0.0147613
0.0148071
0.0148405
0.0148626
0.014875
0.0148794
0.0148776
0.0148716
0.0148633
0.0148546
0.0148472
0.0148422
0.0148406
0.0148427
0.0148486
0.0148578
0.0148721
0.0148903
0.01491
0.0149293
0.014946
0.0149583
0.0149641
0.0149616
0.0149491
0.0149248
0.0148871
0.0148348
0.0147666
0.0146816
0.014579
0.0144583
0.0143192
0.0141618
0.0139861
0.0137926
0.0135817
0.0133539
0.0131099
0.0128501
0.0125749
0.0122843
0.0119781
0.0116554
0.011315
0.0109551
0.0105735
0.0101677
0.00973493
0.009273
0.00878032
0.00825661
0.00770345
0.00712478
0.00652734
0.00590233
0.00523991
0.00457019
0.0039264
0.00333573
0.00281149
0.00235249
0.00194934
0.00159183
0.00127308
0.00099045
0.000744692
0.000538276
0.00037342
0.00025025
0.000165786
0.000114422
9.01325e-05
9.01665e-05
0.000119705
0.000193515
0.000318156
0.000454641
0.000546093
0.000585173
0.000594869
0.000592929
0.000587302
0.00058083
0.000574003
0.000567088
0.000560216
0.000553448
0.000546817
0.000540343
0.000534038
0.000527905
0.000521946
0.000516158
0.000510537
0.00050508
0.000499782
0.000494644
0.000489664
0.000484848
0.0004802
0.000475731
0.000471451
0.000467374
0.000463513
0.000459885
0.000456504
0.000453386
0.000450543
0.000447985
0.000445722
0.000443755
0.000442085
0.000440708
0.000439615
0.000438793
0.000438226
0.000437897
0.000437784
0.000437868
0.000438128
0.000438546
0.000439103
0.000439786
0.000440582
0.00044148
0.000442474
0.000443556
0.000444723
0.00044597
0.000447301
0.000448714
0.000450202
0.000451761
0.000453385
0.000455071
0.000456819
0.000458633
0.000460523
0.000462515
0.000464652
0.000467002
0.00724151
0.00749043
0.00774723
0.00799091
0.00821521
0.00842105
0.00861096
0.00878918
0.00896033
0.00912873
0.00929791
0.00947043
0.00964791
0.00983125
0.0100208
0.0102164
0.0104179
0.0106249
0.0108368
0.0110532
0.0112735
0.0114973
0.0117242
0.0119534
0.0121847
0.0124173
0.0126506
0.012884
0.0131166
0.0133476
0.0135761
0.013801
0.0140213
0.0142357
0.0144429
0.0146416
0.0148306
0.0150083
0.0151735
0.0153249
0.0154614
0.0155821
0.0156862
0.0157733
0.0158434
0.0158966
0.0159336
0.0159555
0.0159637
0.01596
0.0159462
0.0159246
0.0158975
0.015867
0.0158353
0.0158044
0.0157758
0.0157508
0.0157304
0.0157151
0.0157051
0.0156999
0.015701
0.0157087
0.015721
0.0157359
0.015752
0.0157673
0.0157805
0.0157898
0.0157937
0.015791
0.0157802
0.0157602
0.0157299
0.0156886
0.0156355
0.0155701
0.0154919
0.0154006
0.0152961
0.0151783
0.015047
0.0149021
0.0147435
0.0145709
0.0143836
0.014181
0.013962
0.0137252
0.013469
0.0131913
0.0128899
0.0125624
0.0122065
0.0118198
0.0114007
0.0109481
0.0104623
0.00994472
0.00937935
0.00874648
0.00806078
0.00734279
0.00661534
0.00589924
0.00520972
0.00455484
0.00393651
0.00335322
0.00280304
0.00228603
0.00180566
0.00136926
0.000987186
0.000670489
0.000426926
0.000256807
0.000151381
9.59455e-05
7.6948e-05
9.07931e-05
0.00015171
0.000279496
0.000437671
0.000545418
0.000589869
0.000601262
0.000600513
0.000595567
0.00058911
0.000582132
0.000575003
0.000567871
0.000560805
0.00055384
0.000547
0.000540301
0.000533753
0.000527365
0.000521144
0.000515097
0.000509231
0.000503554
0.000498077
0.00049281
0.000487767
0.000482963
0.000478412
0.00047413
0.000470133
0.000466434
0.000463045
0.000459975
0.00045723
0.000454813
0.00045272
0.000450944
0.000449474
0.000448293
0.000447382
0.000446717
0.000446274
0.000446027
0.000445951
0.000446021
0.000446217
0.000446518
0.000446909
0.000447377
0.000447913
0.000448511
0.000449166
0.000449878
0.000450646
0.000451472
0.000452361
0.000453316
0.000454345
0.000455454
0.000456654
0.000457959
0.00045939
0.000460972
0.00046274
0.000464736
0.000467019
0.0076064
0.00786976
0.00813521
0.00838632
0.00861555
0.00882465
0.0090166
0.00919633
0.00936911
0.00953972
0.00971195
0.00988833
0.0100704
0.0102587
0.0104536
0.0106547
0.0108619
0.0110747
0.0112928
0.0115156
0.011743
0.0119744
0.0122096
0.0124479
0.0126891
0.0129326
0.0131776
0.0134237
0.0136699
0.0139153
0.014159
0.0143998
0.0146367
0.0148681
0.0150929
0.0153094
0.0155163
0.0157121
0.0158953
0.0160645
0.0162185
0.0163562
0.0164768
0.0165796
0.0166645
0.0167315
0.016781
0.0168138
0.016831
0.0168339
0.0168241
0.0168032
0.0167731
0.0167355
0.0166923
0.0166453
0.016596
0.016546
0.0164969
0.0164499
0.0164061
0.0163665
0.0163317
0.0163024
0.0162806
0.0162663
0.0162584
0.0162561
0.0162585
0.0162646
0.0162735
0.0162841
0.0162954
0.0163064
0.016316
0.0163233
0.0163275
0.0163278
0.0163233
0.0163134
0.0162974
0.0162744
0.0162439
0.0162048
0.0161562
0.016097
0.016026
0.0159416
0.0158421
0.0157256
0.0155899
0.0154325
0.0152509
0.0150424
0.0148043
0.0145338
0.0142285
0.0138862
0.0135055
0.0130852
0.0126079
0.0120504
0.0114175
0.0107195
0.00997168
0.0091916
0.0083972
0.00760412
0.00682403
0.00606405
0.00532745
0.00461507
0.0039271
0.0032648
0.00263233
0.0020383
0.00149683
0.00102695
0.000648609
0.000374526
0.00020148
0.00010952
7.30339e-05
7.73942e-05
0.000134456
0.000272326
0.000444429
0.000552052
0.000593493
0.000604351
0.00060318
0.000597692
0.000590701
0.0005832
0.000575544
0.000567875
0.000560262
0.000552744
0.000545352
0.00053811
0.000531039
0.000524158
0.000517485
0.000511038
0.000504835
0.000498893
0.000493231
0.000487867
0.000482818
0.000478099
0.000473726
0.000469711
0.000466061
0.000462782
0.000459874
0.000457332
0.000455149
0.000453309
0.000451794
0.000450581
0.000449645
0.000448958
0.000448489
0.000448211
0.000448093
0.000448111
0.000448241
0.000448463
0.000448762
0.000449125
0.000449546
0.000450018
0.00045054
0.000451111
0.000451736
0.000452417
0.00045316
0.000453974
0.000454867
0.000455852
0.000456941
0.000458154
0.00045951
0.000461037
0.000462768
0.000464745
0.00046702
0.00770552
0.00797706
0.00824401
0.00849599
0.00872447
0.00893193
0.00912157
0.00929877
0.00946918
0.00963794
0.00980898
0.00998488
0.010167
0.0103558
0.0105512
0.010753
0.0109607
0.0111741
0.0113928
0.0116165
0.011845
0.012078
0.0123152
0.0125563
0.012801
0.0130488
0.0132991
0.0135514
0.0138049
0.0140588
0.0143122
0.014564
0.0148131
0.0150582
0.015298
0.0155313
0.0157565
0.0159723
0.0161772
0.0163699
0.0165492
0.0167138
0.0168628
0.0169954
0.0171111
0.0172094
0.0172903
0.0173539
0.0174006
0.0174309
0.0174454
0.017445
0.0174306
0.0174032
0.0173639
0.017314
0.0172547
0.0171875
0.0171139
0.0170357
0.0169547
0.0168727
0.0167916
0.0167134
0.0166397
0.0165727
0.0165143
0.016465
0.0164247
0.0163935
0.0163716
0.0163589
0.0163551
0.0163599
0.0163728
0.0163932
0.0164203
0.0164535
0.0164921
0.0165351
0.0165817
0.016631
0.0166817
0.0167327
0.0167823
0.016829
0.0168708
0.0169055
0.0169305
0.0169432
0.0169406
0.0169196
0.0168767
0.0168085
0.0167115
0.0165821
0.0164171
0.0162131
0.0159675
0.0156776
0.0153279
0.0148966
0.0143814
0.0137841
0.0131106
0.0123703
0.0115753
0.0107397
0.00987798
0.00900448
0.00813186
0.00727032
0.00642705
0.00560648
0.0048111
0.00404286
0.0033048
0.00260308
0.00194922
0.00136222
0.000868241
0.000493899
0.000250687
0.000121688
7.08542e-05
7.22131e-05
0.000138225
0.000295774
0.000461946
0.00055549
0.000588148
0.00059434
0.000591278
0.000585141
0.000577959
0.000570407
0.00056273
0.000555039
0.000547398
0.000539852
0.000532443
0.000525204
0.000518168
0.000511364
0.000504822
0.000498567
0.000492626
0.000487021
0.000481773
0.000476901
0.000472417
0.000468334
0.000464656
0.000461385
0.000458516
0.00045604
0.000453942
0.000452203
0.000450798
0.0004497
0.000448879
0.000448303
0.00044794
0.000447757
0.000447725
0.000447818
0.000448011
0.000448287
0.000448629
0.000449027
0.000449475
0.000449968
0.000450505
0.000451088
0.00045172
0.000452407
0.000453154
0.000453971
0.000454866
0.000455851
0.000456941
0.000458153
0.00045951
0.000461037
0.000462768
0.000464745
0.00046702
0.00752466
0.00779752
0.00805865
0.00830478
0.00852669
0.00872755
0.00891059
0.00908135
0.00924564
0.00940876
0.00957476
0.00974619
0.00992428
0.0101093
0.010301
0.010499
0.0107028
0.010912
0.0111264
0.0113458
0.01157
0.0117989
0.0120325
0.0122705
0.0125126
0.0127586
0.0130081
0.0132606
0.0135154
0.0137719
0.0140293
0.0142867
0.0145432
0.0147977
0.015049
0.0152962
0.0155378
0.0157727
0.0159997
0.0162175
0.0164248
0.0166206
0.0168036
0.0169728
0.0171273
0.0172662
0.0173887
0.0174943
0.0175825
0.0176529
0.0177053
0.0177396
0.0177559
0.0177544
0.0177355
0.0176998
0.0176481
0.0175815
0.0175011
0.0174086
0.0173054
0.0171936
0.017075
0.016952
0.0168268
0.016702
0.0165804
0.0164652
0.0163593
0.0162636
0.0161787
0.0161058
0.0160458
0.0159996
0.0159677
0.0159504
0.015948
0.0159603
0.0159872
0.0160285
0.0160837
0.0161523
0.0162337
0.0163269
0.0164308
0.0165439
0.0166642
0.0167896
0.0169173
0.0170441
0.0171665
0.0172803
0.0173814
0.0174652
0.0175269
0.0175616
0.0175647
0.0175313
0.0174571
0.0173379
0.0171627
0.0169152
0.0165876
0.016175
0.015675
0.0150881
0.0144173
0.0136677
0.0128471
0.0119661
0.0110383
0.0100796
0.00910711
0.00813699
0.00718284
0.00625518
0.00536166
0.00450776
0.00369751
0.00293456
0.00222442
0.0015783
0.00101779
0.000575038
0.000278186
0.000122652
6.65228e-05
7.55738e-05
0.00016559
0.000347256
0.00048611
0.000538915
0.000552154
0.000552421
0.000548649
0.000543521
0.000537857
0.000531942
0.0005259
0.000519807
0.000513722
0.000507694
0.000501769
0.000495989
0.000490394
0.000485022
0.000479906
0.000475078
0.000470566
0.000466392
0.000462575
0.000459129
0.000456062
0.000453376
0.000451067
0.000449127
0.000447539
0.000446285
0.000445339
0.000444674
0.000444257
0.000444059
0.000444046
0.000444188
0.000444457
0.000444828
0.000445279
0.000445793
0.000446359
0.000446968
0.000447614
0.000448298
0.000449018
0.000449778