/*--------------------------------*- C++ -*----------------------------------*\
| =========                 |                                                 |
| \\      /  F ield         | OpenFOAM: The Open Source CFD Toolbox           |
|  \\    /   O peration     | Version:  2406                                  |
|   \\  /    A nd           | Website:  www.openfoam.com                      |
|    \\/     M anipulation  |                                                 |
\*---------------------------------------------------------------------------*/
FoamFile
{
    version     2.0;
    format      ascii;
    arch        "LSB;label=32;scalar=64";
    class       volScalarField;
    location    "500";
    object      p;
}
// * * * * * * * * * * * * * * * * * * * * * * * * * * * * * * * * * * * * * //

dimensions      [0 2 -2 0 0 0 0];

internalField   nonuniform List<scalar> 
5619
(
-0.0281207
-0.0134772
-0.0257677
-0.0329989
-0.0424813
-0.0505458
-0.0574518
-0.0627091
-0.0665822
-0.0694952
-0.0720529
-0.0748448
-0.0783608
-0.0829498
-0.0888148
-0.0960589
-0.104707
-0.114767
-0.126242
-0.139159
-0.153582
-0.169595
-0.187326
-0.206915
-0.22854
-0.252398
-0.278707
-0.307712
-0.339652
-0.3748
-0.413411
-0.455763
-0.502107
-0.552685
-0.607701
-0.667306
-0.731591
-0.800545
-0.874052
-0.951849
-1.03352
-1.11844
-1.20582
-1.29462
-1.38358
-1.47123
-1.55586
-1.63559
-1.70837
-1.77203
-1.82434
-1.86305
-1.88599
-1.89107
-1.87641
-1.84032
-1.78138
-1.69845
-1.5906
-1.45687
-1.29657
-1.10981
-0.897233
-0.659967
-0.399644
-0.11836
0.181324
0.496377
0.823293
1.15808
1.49622
1.83264
2.1616
2.47658
2.77011
3.03354
3.25679
3.42813
3.53433
3.56173
3.49939
3.3467
3.1279
2.9063
2.75601
2.67952
2.63918
2.613
2.59277
2.57563
2.56114
2.54884
2.53853
2.53006
2.52332
2.5182
2.51459
2.51243
2.51163
2.5118
2.51269
2.51469
2.51813
2.52336
2.53076
2.54062
2.55313
2.56843
2.58657
2.60741
2.63067
2.65593
2.68266
2.71026
2.73813
2.7657
2.79247
2.81801
2.84203
2.8643
2.8847
2.90321
2.91984
2.93467
2.94782
2.95937
2.96946
2.97862
2.98736
2.99593
3.00443
3.01291
3.02139
3.02991
3.0385
3.04719
3.056
3.06496
3.07408
3.08337
3.09284
3.1025
3.11234
3.12236
3.13255
3.14289
3.15336
3.16393
3.17458
3.18525
3.19591
3.20651
3.21699
3.2273
3.23737
3.24715
3.25658
3.26559
3.27414
3.28217
3.28965
3.29654
3.30282
3.30848
3.31353
3.31798
3.32187
3.32522
3.32808
3.33052
3.3326
3.33435
3.33586
3.33718
3.33836
3.33945
3.3405
3.34155
3.34262
3.34376
3.34499
3.34634
3.34787
3.34964
3.3516
3.3537
3.36436
-0.0279666
-0.0132506
-0.0255329
-0.0327508
-0.0422362
-0.0503119
-0.0572364
-0.0625145
-0.0664057
-0.0693292
-0.0718864
-0.074665
-0.0781553
-0.0827075
-0.0885264
-0.0957168
-0.104304
-0.114298
-0.125698
-0.138532
-0.152863
-0.168771
-0.186383
-0.205837
-0.227307
-0.250989
-0.2771
-0.305881
-0.33757
-0.372439
-0.410741
-0.452754
-0.498728
-0.548907
-0.603495
-0.662645
-0.726453
-0.794911
-0.86791
-0.945192
-1.02635
-1.11078
-1.19768
-1.28605
-1.37464
-1.46199
-1.54642
-1.62608
-1.69894
-1.76285
-1.81563
-1.85505
-1.87898
-1.88538
-1.87238
-1.83837
-1.78195
-1.70209
-1.598
-1.46869
-1.31342
-1.13249
-0.926616
-0.697025
-0.445435
-0.174039
0.114495
0.417026
0.72993
1.0491
1.3699
1.68717
1.9951
2.28724
2.55635
2.79441
2.99262
3.14167
3.23242
3.25754
3.21449
3.1103
2.96755
2.82422
2.71363
2.65045
2.624
2.60689
2.58945
2.57376
2.55978
2.54756
2.53728
2.52882
2.5221
2.51701
2.51344
2.51132
2.51059
2.51084
2.51182
2.51387
2.51736
2.52263
2.53003
2.53985
2.55234
2.56768
2.58585
2.60673
2.63003
2.65532
2.68207
2.7097
2.73759
2.76519
2.79198
2.81755
2.84159
2.86389
2.88432
2.90285
2.91951
2.93436
2.94754
2.9591
2.96918
2.97833
2.98709
2.99567
3.00418
3.01267
3.02116
3.02969
3.03829
3.04699
3.05581
3.06478
3.07391
3.08321
3.09269
3.10236
3.11221
3.12224
3.13243
3.14278
3.15326
3.16385
3.1745
3.18518
3.19585
3.20645
3.21694
3.22725
3.23733
3.24712
3.25655
3.26557
3.27412
3.28216
3.28964
3.29653
3.30281
3.30848
3.31353
3.31798
3.32187
3.32522
3.32809
3.33053
3.3326
3.33436
3.33587
3.33719
3.33837
3.33946
3.34052
3.34156
3.34264
3.34377
3.345
3.34634
3.34784
3.34953
3.35123
3.35233
3.35684
-0.0275714
-0.01269
-0.0249464
-0.0321306
-0.0416191
-0.0497179
-0.0566829
-0.0620066
-0.065937
-0.0688818
-0.0714345
-0.0741795
-0.0776081
-0.0820743
-0.0877876
-0.0948572
-0.103311
-0.113159
-0.124402
-0.137065
-0.151206
-0.166903
-0.184281
-0.203471
-0.224646
-0.247998
-0.273739
-0.302108
-0.333341
-0.367704
-0.405452
-0.446859
-0.492178
-0.541649
-0.595482
-0.653833
-0.716801
-0.784388
-0.856491
-0.932868
-1.01312
-1.09667
-1.18274
-1.27035
-1.35828
-1.4451
-1.52918
-1.6087
-1.68168
-1.74602
-1.7996
-1.84023
-1.86584
-1.87444
-1.86423
-1.83364
-1.78134
-1.70637
-1.60815
-1.48572
-1.33833
-1.1664
-0.970757
-0.752696
-0.514025
-0.25701
0.0156157
0.300658
0.594463
0.892922
1.19146
1.48504
1.76815
2.03481
2.27864
2.49295
2.6711
2.80695
2.89585
2.93604
2.93052
2.8888
2.8268
2.76176
2.70038
2.63928
2.59438
2.58124
2.57358
2.55994
2.54779
2.53731
2.52799
2.52016
2.51403
2.50949
2.50647
2.50487
2.50462
2.50537
2.50682
2.50927
2.5131
2.51867
2.52633
2.53643
2.54921
2.56481
2.58324
2.60437
2.62791
2.65342
2.68039
2.70821
2.73628
2.76403
2.79097
2.81668
2.84084
2.86324
2.88378
2.9024
2.91914
2.93407
2.94731
2.95893
2.96904
2.97823
2.98701
2.99562
3.00417
3.01267
3.02119
3.02973
3.03836
3.04707
3.05592
3.0649
3.07404
3.08336
3.09285
3.10253
3.11239
3.12243
3.13263
3.14298
3.15347
3.16405
3.1747
3.18539
3.19605
3.20665
3.21714
3.22744
3.23752
3.24729
3.25671
3.26572
3.27426
3.28229
3.28976
3.29663
3.3029
3.30856
3.3136
3.31805
3.32192
3.32527
3.32813
3.33056
3.33263
3.33439
3.33589
3.33721
3.33839
3.33948
3.34054
3.34159
3.34266
3.3438
3.34504
3.3464
3.34795
3.34976
3.35181
3.35386
3.35891
-0.0268933
-0.0118474
-0.0240484
-0.0311921
-0.0406887
-0.0488302
-0.0558649
-0.0612683
-0.0652695
-0.0682593
-0.0708198
-0.0735309
-0.0768861
-0.0812458
-0.0868271
-0.0937457
-0.102034
-0.111704
-0.122755
-0.135209
-0.149122
-0.164569
-0.181666
-0.200542
-0.221367
-0.244326
-0.269629
-0.297509
-0.3282
-0.361965
-0.399055
-0.439746
-0.484286
-0.532921
-0.585859
-0.643262
-0.705237
-0.771793
-0.842843
-0.91816
-0.99737
-1.07992
-1.16506
-1.25184
-1.3391
-1.42546
-1.50934
-1.58898
-1.66246
-1.72776
-1.78281
-1.82552
-1.85386
-1.86593
-1.86001
-1.83457
-1.7884
-1.72062
-1.63082
-1.51806
-1.38151
-1.22172
-1.03961
-0.836553
-0.61438
-0.375369
-0.122236
0.141888
0.413475
0.688618
0.963061
1.23225
1.49137
1.73548
1.95956
2.1588
2.32885
2.46625
2.5689
2.63672
2.67217
2.68056
2.66967
2.64802
2.62178
2.59272
2.56014
2.53216
2.53223
2.53987
2.53055
2.51955
2.51133
2.50483
2.49992
2.49635
2.49419
2.49344
2.49407
2.49572
2.498
2.50115
2.50555
2.51159
2.51966
2.53012
2.54326
2.55923
2.57806
2.59959
2.62353
2.64946
2.67681
2.70501
2.73345
2.76154
2.78879
2.81479
2.83922
2.86187
2.88263
2.90145
2.91837
2.93346
2.94683
2.95856
2.96877
2.97802
2.98687
2.99554
3.00414
3.0127
3.02127
3.02987
3.03854
3.0473
3.05619
3.06521
3.07439
3.08374
3.09327
3.10298
3.11286
3.12292
3.13315
3.14352
3.15402
3.16461
3.17527
3.18595
3.19662
3.20721
3.21768
3.22797
3.23802
3.24778
3.25717
3.26615
3.27465
3.28264
3.29007
3.29692
3.30315
3.30877
3.31378
3.31819
3.32204
3.32536
3.32821
3.33062
3.33267
3.33442
3.33591
3.33722
3.3384
3.33949
3.34054
3.34158
3.34266
3.34379
3.34501
3.34635
3.34785
3.34955
3.35138
3.35327
3.35833
-0.0258842
-0.0108319
-0.0229376
-0.0300545
-0.039566
-0.0477685
-0.0548942
-0.0603989
-0.0644885
-0.067534
-0.0701051
-0.0727781
-0.0760505
-0.0802906
-0.0857254
-0.0924781
-0.100587
-0.110063
-0.120907
-0.133138
-0.146808
-0.161985
-0.178783
-0.197327
-0.217778
-0.240321
-0.265159
-0.292521
-0.322639
-0.355771
-0.392168
-0.4321
-0.475818
-0.523567
-0.575559
-0.631962
-0.692889
-0.758366
-0.828319
-0.902546
-0.980702
-1.06227
-1.14655
-1.23264
-1.31944
-1.40564
-1.48972
-1.57
-1.64466
-1.71175
-1.76928
-1.81523
-1.84766
-1.86473
-1.86476
-1.84634
-1.80828
-1.74981
-1.67066
-1.56996
-1.44678
-1.30165
-1.13561
-0.950019
-0.746703
-0.527884
-0.296184
-0.0545808
0.193627
0.444864
0.695331
0.941077
1.17809
1.40242
1.61033
1.79842
1.96391
2.10486
2.22035
2.3108
2.37802
2.42518
2.4565
2.47653
2.4891
2.49651
2.49844
2.48885
2.46349
2.45172
2.47534
2.493
2.48696
2.47808
2.4735
2.47121
2.47077
2.47175
2.47396
2.47703
2.48047
2.48455
2.48979
2.49665
2.50557
2.51695
2.53105
2.548
2.56781
2.5903
2.61518
2.64198
2.67016
2.69913
2.72828
2.75704
2.7849
2.81145
2.83639
2.85952
2.8807
2.89991
2.91718
2.93257
2.94621
2.95817
2.96857
2.97798
2.98696
2.99575
3.00447
3.01313
3.0218
3.03049
3.03924
3.04809
3.05705
3.06614
3.07538
3.08478
3.09436
3.10411
3.11403
3.12412
3.13436
3.14475
3.15526
3.16585
3.1765
3.18717
3.19781
3.20837
3.21881
3.22905
3.23905
3.24874
3.25807
3.26697
3.27541
3.28332
3.29068
3.29744
3.3036
3.30916
3.3141
3.31846
3.32226
3.32553
3.32834
3.33072
3.33274
3.33447
3.33595
3.33725
3.33842
3.33951
3.34055
3.3416
3.34268
3.34382
3.34505
3.34641
3.34794
3.34969
3.35157
3.3535
3.35807
-0.0244606
-0.00976409
-0.0217177
-0.028849
-0.038386
-0.0466689
-0.0538985
-0.0595123
-0.0636904
-0.0667847
-0.0693544
-0.0719749
-0.07515
-0.0792583
-0.0845366
-0.0911156
-0.0990376
-0.108315
-0.118947
-0.130948
-0.144365
-0.159264
-0.17575
-0.193945
-0.214006
-0.236113
-0.260463
-0.287282
-0.316798
-0.349262
-0.384927
-0.424058
-0.466907
-0.513719
-0.564711
-0.62006
-0.679891
-0.744248
-0.813084
-0.886233
-0.963392
-1.0441
-1.12772
-1.21342
-1.3002
-1.38681
-1.47187
-1.55378
-1.63083
-1.70116
-1.76288
-1.81407
-1.85285
-1.87744
-1.88624
-1.87786
-1.8512
-1.80552
-1.7406
-1.65576
-1.55001
-1.42367
-1.27788
-1.11396
-0.933663
-0.739104
-0.532726
-0.317269
-0.0957057
0.12882
0.353072
0.573796
0.787828
0.992196
1.18424
1.36171
1.52293
1.66683
1.79313
1.90228
1.99555
2.07487
2.14268
2.20155
2.2537
2.30052
2.34212
2.37643
2.39726
2.39382
2.36661
2.35785
2.39045
2.42608
2.43762
2.43506
2.43354
2.43515
2.43895
2.44429
2.45016
2.45656
2.46396
2.47276
2.48344
2.49642
2.51203
2.53047
2.55174
2.57568
2.60195
2.63008
2.65952
2.68965
2.71989
2.74967
2.77849
2.80594
2.8317
2.85557
2.87742
2.89724
2.91505
2.93092
2.94498
2.95731
2.96801
2.97766
2.98686
2.99586
3.00478
3.01364
3.02248
3.03135
3.04027
3.04927
3.05838
3.06761
3.07698
3.0865
3.09618
3.10602
3.11602
3.12617
3.13647
3.1469
3.15743
3.16803
3.17867
3.18932
3.19992
3.21043
3.22079
3.23095
3.24085
3.25043
3.25964
3.26842
3.27672
3.2845
3.29172
3.29836
3.30439
3.30982
3.31465
3.31891
3.32262
3.32582
3.32855
3.33088
3.33286
3.33455
3.33601
3.33729
3.33844
3.33952
3.34056
3.3416
3.34268
3.34381
3.34504
3.34639
3.34791
3.34964
3.35152
3.35354
3.35774
-0.0224993
-0.00875644
-0.0204832
-0.0277034
-0.0372821
-0.0456676
-0.0530064
-0.0587226
-0.0629698
-0.0660857
-0.0686241
-0.0711649
-0.0742217
-0.0781846
-0.0832999
-0.0897037
-0.0974407
-0.106522
-0.116942
-0.128714
-0.141876
-0.156491
-0.172658
-0.190493
-0.21015
-0.231803
-0.255645
-0.281895
-0.310778
-0.342541
-0.377435
-0.415721
-0.457655
-0.503482
-0.553427
-0.607682
-0.66639
-0.729624
-0.797377
-0.869533
-0.945852
-1.02595
-1.10928
-1.19512
-1.28257
-1.37053
-1.45773
-1.54271
-1.62388
-1.69951
-1.76781
-1.82695
-1.87511
-1.91058
-1.93177
-1.9373
-1.92608
-1.89732
-1.8507
-1.78596
-1.70219
-1.59927
-1.47829
-1.34049
-1.18745
-1.02108
-0.843574
-0.65732
-0.46488
-0.26889
-0.0719922
0.123256
0.314463
0.499482
0.676496
0.844076
1.00123
1.14743
1.28263
1.40725
1.52203
1.62805
1.72649
1.81848
1.90492
1.98627
2.06242
2.13257
2.19521
2.24736
2.28234
2.28929
2.26582
2.24571
2.26485
2.31186
2.35461
2.37771
2.38751
2.39384
2.39974
2.40651
2.41516
2.42621
2.43994
2.45649
2.47599
2.49843
2.52365
2.55132
2.581
2.61217
2.64424
2.6766
2.7087
2.74002
2.77016
2.79878
2.82563
2.85051
2.8733
2.89397
2.91254
2.92909
2.94376
2.95662
2.9678
2.97787
2.98746
2.99683
3.00609
3.01528
3.02444
3.0336
3.04279
3.05205
3.06139
3.07083
3.0804
3.09009
3.09991
3.10988
3.11998
3.13021
3.14056
3.15101
3.16153
3.1721
3.18269
3.19325
3.20375
3.21412
3.22433
3.23432
3.24402
3.25339
3.26237
3.27092
3.27898
3.28651
3.29349
3.29989
3.30571
3.31093
3.31558
3.31966
3.32322
3.32629
3.32891
3.33115
3.33306
3.33469
3.33611
3.33736
3.33849
3.33955
3.34058
3.34162
3.34269
3.34383
3.34506
3.34642
3.34794
3.34967
3.35154
3.35363
3.3574
-0.0198646
-0.00790604
-0.0193121
-0.0267297
-0.0363713
-0.0448845
-0.0523302
-0.0581288
-0.0624081
-0.0655005
-0.0679625
-0.0703854
-0.0732973
-0.0771006
-0.0820494
-0.088282
-0.0958422
-0.104736
-0.114954
-0.126501
-0.139411
-0.15374
-0.169581
-0.187048
-0.206287
-0.227468
-0.25078
-0.276435
-0.304654
-0.33568
-0.369763
-0.407163
-0.448136
-0.492937
-0.541801
-0.59494
-0.652526
-0.714674
-0.78143
-0.852746
-0.92847
-1.00832
-1.09187
-1.17854
-1.26757
-1.35802
-1.44879
-1.53859
-1.62597
-1.70935
-1.78705
-1.85733
-1.91844
-1.96867
-2.00643
-2.0303
-2.03909
-2.03184
-2.00791
-1.96794
-1.91125
-1.83677
-1.7455
-1.63847
-1.51699
-1.38264
-1.23724
-1.08276
-0.921275
-0.754883
-0.585646
-0.415511
-0.246255
-0.0794244
0.0837043
0.242154
0.395257
0.542645
0.684229
0.820155
0.950741
1.0764
1.19756
1.31459
1.42767
1.53677
1.64159
1.74153
1.83577
1.92332
2.00305
2.07317
2.12932
2.16322
2.16647
2.14722
2.13503
2.15176
2.1913
2.23757
2.27854
2.30951
2.33355
2.35455
2.37552
2.39817
2.42333
2.45124
2.4818
2.51468
2.54936
2.5852
2.62152
2.65767
2.69307
2.72723
2.75976
2.79033
2.81873
2.84488
2.86877
2.89045
2.90997
2.92739
2.94286
2.95648
2.96837
2.97912
2.98934
2.99931
3.00913
3.01884
3.02849
3.03811
3.04772
3.05736
3.06705
3.07681
3.08665
3.09658
3.10661
3.11674
3.12697
3.13728
3.14767
3.15812
3.1686
3.17909
3.18955
3.19994
3.21022
3.22035
3.23026
3.23993
3.24928
3.25828
3.26687
3.27501
3.28266
3.28978
3.29636
3.30238
3.30783
3.31272
3.31705
3.32086
3.32417
3.32703
3.32949
3.33158
3.33337
3.33492
3.33626
3.33746
3.33856
3.3396
3.34061
3.34164
3.34271
3.34384
3.34507
3.34643
3.34795
3.34967
3.35154
3.3537
3.35704
-0.0164593
-0.00727735
-0.018254
-0.0260024
-0.0357299
-0.0443972
-0.051942
-0.057794
-0.0620578
-0.065071
-0.0674029
-0.069665
-0.0724038
-0.0760347
-0.0808172
-0.0868878
-0.0942847
-0.103006
-0.113034
-0.124366
-0.13703
-0.151075
-0.166589
-0.183681
-0.202492
-0.223188
-0.245951
-0.270989
-0.29852
-0.328782
-0.362026
-0.39851
-0.438499
-0.482253
-0.530028
-0.582061
-0.638562
-0.699697
-0.765579
-0.836247
-0.911652
-0.991638
-1.07592
-1.16409
-1.25555
-1.34957
-1.44523
-1.54142
-1.63688
-1.7302
-1.81983
-1.90412
-1.98138
-2.04992
-2.10809
-2.15437
-2.18742
-2.20608
-2.20943
-2.19814
-2.1727
-2.13171
-2.07474
-2.00273
-1.91651
-1.81724
-1.70625
-1.58505
-1.45522
-1.31836
-1.17608
-1.02988
-0.881154
-0.731124
-0.580829
-0.431107
-0.282593
-0.135732
0.00918998
0.152022
0.292708
0.431229
0.567562
0.701642
0.833315
0.9623
1.08819
1.21043
1.32838
1.44127
1.54836
1.64895
1.74251
1.82844
1.90523
1.96933
2.01536
2.03839
2.04102
2.04404
2.06199
2.09421
2.13614
2.1815
2.22667
2.27096
2.31503
2.35965
2.40514
2.45138
2.49788
2.54396
2.5889
2.63208
2.67304
2.71152
2.74741
2.78071
2.81148
2.83972
2.86535
2.88841
2.90909
2.9276
2.9441
2.95874
2.97164
2.9834
2.99457
3.00541
3.01605
3.02652
3.03686
3.0471
3.05728
3.06743
3.07756
3.08771
3.09787
3.10807
3.1183
3.12857
3.13888
3.14922
3.15956
3.16991
3.18022
3.19047
3.20063
3.21067
3.22054
3.2302
3.2396
3.2487
3.25746
3.26583
3.27378
3.28127
3.28826
3.29475
3.3007
3.30612
3.31101
3.31538
3.31925
3.32264
3.32559
3.32814
3.33034
3.33222
3.33384
3.33525
3.33649
3.33762
3.33866
3.33966
3.34066
3.34167
3.34273
3.34386
3.34509
3.34645
3.34797
3.34969
3.35155
3.35376
3.3567
-0.0122912
-0.00689107
-0.017323
-0.0255417
-0.0353758
-0.0442223
-0.0518558
-0.0577302
-0.0619299
-0.0648092
-0.0669598
-0.0690215
-0.0715636
-0.0750141
-0.079635
-0.0855566
-0.0928078
-0.101374
-0.111229
-0.122361
-0.134789
-0.148558
-0.163748
-0.180466
-0.198848
-0.219054
-0.241264
-0.265679
-0.292515
-0.322009
-0.354409
-0.389978
-0.428985
-0.471705
-0.518414
-0.569378
-0.624849
-0.685049
-0.750165
-0.820326
-0.895597
-0.975952
-1.06126
-1.15129
-1.24563
-1.34375
-1.44495
-1.54833
-1.65285
-1.7573
-1.86029
-1.96033
-2.05584
-2.14518
-2.22673
-2.29889
-2.36022
-2.40942
-2.4453
-2.46685
-2.47635
-2.47425
-2.45729
-2.42525
-2.37888
-2.31874
-2.24551
-2.16017
-2.06381
-1.95763
-1.84287
-1.72078
-1.59254
-1.45929
-1.32203
-1.18169
-1.03903
-0.894718
-0.749299
-0.603231
-0.456894
-0.310624
-0.164745
-0.0195949
0.124458
0.26698
0.407464
0.545327
0.679904
0.810461
0.936215
1.05638
1.17017
1.27689
1.37596
1.467
1.54973
1.62303
1.68429
1.73971
1.79562
1.84993
1.90224
1.95551
2.01257
2.07368
2.13762
2.20312
2.26925
2.33535
2.40078
2.46485
2.52672
2.58543
2.63998
2.68959
2.73387
2.773
2.80757
2.83832
2.86593
2.89086
2.91327
2.93326
2.95105
2.96692
2.98109
2.99409
3.00643
3.01835
3.02997
3.04132
3.05246
3.0634
3.0742
3.08488
3.09545
3.10595
3.11639
3.12678
3.13712
3.14741
3.15766
3.16785
3.17797
3.188
3.19791
3.20768
3.21729
3.22668
3.23584
3.24472
3.25328
3.26149
3.26932
3.27673
3.2837
3.2902
3.29623
3.30177
3.30681
3.31138
3.31547
3.3191
3.32231
3.32511
3.32755
3.32967
3.3315
3.33309
3.33447
3.3357
3.33681
3.33783
3.3388
3.33975
3.34071
3.34171
3.34275
3.34388
3.34511
3.34646
3.34799
3.34969
3.35156
3.3538
3.35641
-0.0075214
-0.00672101
-0.0164991
-0.0253069
-0.0352612
-0.0443066
-0.0520195
-0.0578915
-0.0619889
-0.0646921
-0.0666234
-0.0684574
-0.0707885
-0.0740575
-0.078526
-0.0843143
-0.0914387
-0.0998702
-0.109571
-0.120519
-0.132726
-0.146231
-0.161109
-0.177465
-0.195429
-0.215159
-0.23683
-0.26064
-0.286801
-0.315549
-0.347133
-0.381818
-0.419879
-0.461605
-0.50729
-0.55723
-0.611713
-0.671016
-0.735392
-0.805057
-0.880176
-0.960851
-1.0471
-1.13884
-1.23587
-1.33786
-1.44432
-1.55462
-1.66796
-1.78338
-1.89975
-2.01583
-2.13024
-2.2415
-2.34808
-2.44844
-2.54104
-2.62442
-2.69724
-2.7582
-2.80603
-2.84264
-2.87185
-2.88821
-2.8873
-2.87128
-2.8404
-2.79505
-2.7357
-2.66312
-2.5782
-2.48193
-2.3754
-2.25971
-2.13595
-2.0052
-1.86846
-1.72669
-1.58075
-1.43144
-1.2795
-1.1256
-0.97035
-0.81436
-0.658218
-0.502522
-0.347888
-0.194967
-0.0444551
0.102913
0.246365
0.3851
0.518305
0.645165
0.764887
0.876735
0.980108
1.07418
1.15746
1.23622
1.32121
1.41432
1.51108
1.60786
1.70314
1.79698
1.89019
1.98332
2.07622
2.1682
2.25818
2.34504
2.42777
2.50565
2.57827
2.64531
2.70628
2.76036
2.80684
2.84579
2.87828
2.90584
2.92987
2.95131
2.97058
2.98778
3.00316
3.01732
3.03075
3.04363
3.05611
3.06822
3.08
3.09149
3.10272
3.11373
3.12453
3.13515
3.14561
3.15591
3.16606
3.17606
3.18591
3.19559
3.2051
3.2144
3.2235
3.23235
3.24094
3.24923
3.2572
3.26482
3.27207
3.27893
3.28537
3.29137
3.29694
3.30206
3.30674
3.31098
3.31479
3.3182
3.32123
3.32389
3.32623
3.32827
3.33006
3.33161
3.33298
3.33419
3.33528
3.33627
3.33721
3.3381
3.33898
3.33987
3.34079
3.34175
3.34278
3.3439
3.34512
3.34648
3.348
3.3497
3.35157
3.35383
3.35619
-0.00245518
-0.00669878
-0.0157351
-0.0252034
-0.0352808
-0.0445367
-0.052324
-0.0581811
-0.0621571
-0.0646641
-0.0663589
-0.0679548
-0.0700731
-0.0731664
-0.0774945
-0.0831652
-0.0901801
-0.0984944
-0.108058
-0.11884
-0.130842
-0.144102
-0.158689
-0.174703
-0.192276
-0.211559
-0.232725
-0.255967
-0.281497
-0.309548
-0.340368
-0.374224
-0.411398
-0.452185
-0.496894
-0.545843
-0.599352
-0.657738
-0.72131
-0.790353
-0.865122
-0.945823
-1.03261
-1.12554
-1.22461
-1.32968
-1.44051
-1.55672
-1.6778
-1.8031
-1.93179
-2.06295
-2.19548
-2.32816
-2.45965
-2.5885
-2.71317
-2.83207
-2.94359
-3.04614
-3.13825
-3.21837
-3.28498
-3.34344
-3.39698
-3.43531
-3.45373
-3.45459
-3.43811
-3.40467
-3.35477
-3.28915
-3.2087
-3.11447
-3.00758
-2.88925
-2.76071
-2.62321
-2.47799
-2.32623
-2.16908
-2.00763
-1.8429
-1.67585
-1.50739
-1.33839
-1.16968
-1.00206
-0.836331
-0.673272
-0.513665
-0.358289
-0.207909
-0.0632783
0.0748713
0.205854
0.329083
0.443808
0.548573
0.647831
0.754201
0.873282
1.00077
1.1326
1.26589
1.39883
1.53057
1.6609
1.78979
1.91704
2.04202
2.16358
2.28009
2.38966
2.49051
2.58146
2.66234
2.73403
2.79771
2.85367
2.90105
2.93921
2.96913
2.99309
3.0133
3.03111
3.04708
3.06167
3.0754
3.08854
3.1012
3.1134
3.12518
3.13657
3.14761
3.15831
3.16872
3.17884
3.18869
3.19828
3.2076
3.21667
3.22548
3.23401
3.24225
3.2502
3.25782
3.26511
3.27205
3.27861
3.28479
3.29057
3.29594
3.30089
3.30542
3.30954
3.31325
3.31657
3.31952
3.32211
3.32438
3.32636
3.32807
3.32956
3.33086
3.33199
3.33299
3.33388
3.33471
3.33547
3.33621
3.33694
3.33766
3.33841
3.33918
3.34
3.34087
3.3418
3.34281
3.34392
3.34513
3.34649
3.34801
3.34971
3.35157
3.35384
3.35608
0.00253073
-0.00672523
-0.0149693
-0.0251058
-0.0352985
-0.0447664
-0.0526288
-0.0584742
-0.0623326
-0.064648
-0.0661124
-0.0674782
-0.0693934
-0.0723223
-0.0765222
-0.0820877
-0.0890057
-0.0972158
-0.106656
-0.117286
-0.129102
-0.142135
-0.156454
-0.172158
-0.189372
-0.208247
-0.228952
-0.251677
-0.276633
-0.304048
-0.334169
-0.367264
-0.403613
-0.443518
-0.487296
-0.535278
-0.587804
-0.645223
-0.707882
-0.776122
-0.850267
-0.930614
-1.01742
-1.1109
-1.21119
-1.31836
-1.43238
-1.55312
-1.68035
-1.8137
-1.95267
-2.09663
-2.24478
-2.39618
-2.5497
-2.70403
-2.85769
-3.00901
-3.15617
-3.29726
-3.4303
-3.55327
-3.6641
-3.76053
-3.842
-3.91699
-3.98774
-4.04118
-4.07201
-4.08237
-4.07255
-4.04302
-3.99444
-3.92768
-3.84378
-3.74394
-3.62947
-3.50178
-3.36234
-3.21265
-3.05421
-2.88849
-2.71692
-2.54087
-2.36167
-2.18052
-1.99859
-1.81694
-1.63658
-1.45844
-1.2834
-1.11228
-0.94584
-0.784825
-0.629921
-0.481769
-0.340921
-0.208015
-0.0843331
0.0329067
0.15786
0.29921
0.452588
0.613586
0.778556
0.94459
1.1097
1.27281
1.43358
1.59213
1.74862
1.90297
2.0545
2.20173
2.3424
2.47361
2.59235
2.69627
2.78453
2.85846
2.92117
2.97531
3.02098
3.05675
3.08296
3.10245
3.11823
3.13217
3.1452
3.15758
3.16945
3.18081
3.19166
3.20201
3.21191
3.22138
3.23044
3.23912
3.24741
3.25534
3.2629
3.2701
3.27693
3.28339
3.28947
3.29516
3.30046
3.30536
3.30986
3.31394
3.31762
3.3209
3.32378
3.32627
3.32839
3.33017
3.33163
3.3328
3.3337
3.33439
3.33489
3.33525
3.3355
3.33568
3.33583
3.33596
3.33611
3.33629
3.33653
3.33683
3.3372
3.33763
3.33815
3.33873
3.33939
3.34013
3.34095
3.34185
3.34284
3.34393
3.34514
3.34649
3.34801
3.34971
3.35157
3.35384
3.35608
0.00709098
-0.00668796
-0.0141408
-0.0248892
-0.0351819
-0.0448536
-0.0527978
-0.0586489
-0.0624145
-0.0645664
-0.0658275
-0.0669868
-0.0687178
-0.0714963
-0.0755779
-0.0810454
-0.0878722
-0.095984
-0.105308
-0.115796
-0.127439
-0.140265
-0.15434
-0.16976
-0.18665
-0.205157
-0.225446
-0.247706
-0.272143
-0.298982
-0.328467
-0.360862
-0.396446
-0.43552
-0.478405
-0.525436
-0.576968
-0.633366
-0.695007
-0.762272
-0.835538
-0.915175
-1.00153
-1.09492
-1.19562
-1.30384
-1.41974
-1.54337
-1.67469
-1.81354
-1.95962
-2.11252
-2.27165
-2.43627
-2.60544
-2.778
-2.95261
-3.12766
-3.30134
-3.47164
-3.63638
-3.79323
-3.93974
-4.07347
-4.19178
-4.29143
-4.37322
-4.44868
-4.5175
-4.56647
-4.59281
-4.59781
-4.5818
-4.54527
-4.48894
-4.41376
-4.32083
-4.21141
-4.08693
-3.9489
-3.79889
-3.63854
-3.46946
-3.29327
-3.11152
-2.92573
-2.73728
-2.54751
-2.35763
-2.16875
-1.98187
-1.79792
-1.61772
-1.44203
-1.27154
-1.10691
-0.948704
-0.797558
-0.654612
-0.518616
-0.375434
-0.214919
-0.0411421
0.141573
0.329277
0.518462
0.706394
0.891334
1.0726
1.25046
1.42582
1.59986
1.77352
1.94701
2.11938
2.2883
2.45017
2.60055
2.73498
2.84989
2.94367
3.01752
3.07576
3.12375
3.16367
3.19395
3.21434
3.22837
3.23982
3.25019
3.25996
3.26922
3.27796
3.28611
3.29371
3.30076
3.30731
3.31338
3.31897
3.32412
3.32881
3.33307
3.3369
3.3403
3.34329
3.34586
3.34802
3.34978
3.35116
3.35215
3.35279
3.35308
3.35306
3.35274
3.35216
3.35136
3.35036
3.34922
3.34797
3.34666
3.34534
3.34404
3.34281
3.34167
3.34067
3.33982
3.33913
3.33862
3.33829
3.33813
3.33814
3.3383
3.3386
3.33904
3.33959
3.34026
3.34102
3.34189
3.34286
3.34394
3.34515
3.34649
3.34801
3.34971
3.35157
3.35383
3.35619
0.0109952
-0.00648276
-0.0132022
-0.0244568
-0.0348307
-0.0446899
-0.0527273
-0.0586122
-0.0623267
-0.0643615
-0.0654632
-0.066452
-0.0680242
-0.0706671
-0.0746368
-0.0800071
-0.0867412
-0.0947533
-0.103962
-0.114313
-0.125792
-0.138424
-0.152274
-0.167434
-0.184028
-0.202199
-0.222111
-0.243947
-0.267909
-0.294219
-0.323114
-0.354855
-0.389714
-0.427993
-0.470007
-0.516094
-0.566612
-0.621939
-0.682468
-0.748608
-0.820775
-0.899388
-0.984862
-1.07759
-1.17795
-1.28626
-1.40277
-1.52765
-1.66096
-1.80261
-1.95239
-2.10993
-2.27472
-2.44607
-2.62306
-2.8046
-2.98935
-3.17577
-3.36205
-3.54631
-3.7265
-3.90042
-4.0658
-4.22029
-4.36151
-4.48708
-4.59428
-4.67925
-4.74607
-4.80581
-4.85241
-4.87707
-4.88127
-4.86549
-4.83011
-4.77574
-4.7032
-4.61348
-4.5077
-4.3871
-4.25298
-4.10677
-3.94996
-3.78405
-3.61055
-3.43097
-3.24672
-3.05917
-2.86957
-2.67905
-2.48864
-2.29926
-2.11172
-1.92674
-1.74497
-1.56704
-1.39351
-1.22503
-1.06253
-0.905875
-0.743685
-0.56719
-0.379429
-0.184189
0.0145346
0.212854
0.407518
0.596397
0.778804
0.955572
1.12883
1.30153
1.47679
1.65714
1.84374
2.03582
2.23036
2.4223
2.60527
2.77262
2.91857
3.03926
3.13343
3.20297
3.25307
3.29084
3.32044
3.34161
3.35474
3.3628
3.36892
3.37423
3.37917
3.38361
3.38743
3.39066
3.39333
3.39549
3.39715
3.39834
3.39909
3.39942
3.39934
3.39888
3.39806
3.39689
3.39539
3.39358
3.39149
3.38914
3.38654
3.38373
3.38073
3.37758
3.37432
3.37098
3.36761
3.36425
3.36096
3.35778
3.35475
3.35192
3.34933
3.347
3.34496
3.34322
3.34179
3.34066
3.33982
3.33926
3.33896
3.33888
3.339
3.3393
3.33976
3.34036
3.34109
3.34193
3.34288
3.34395
3.34514
3.34648
3.348
3.3497
3.35156
3.3538
3.35641
0.0141598
-0.00603619
-0.012127
-0.0237548
-0.034191
-0.044216
-0.0523599
-0.0583135
-0.0620298
-0.0640071
-0.065006
-0.0658693
-0.0673129
-0.0698352
-0.073696
-0.0789645
-0.0855977
-0.0935026
-0.10259
-0.112804
-0.124123
-0.136572
-0.150209
-0.165127
-0.181446
-0.199305
-0.218863
-0.240302
-0.263816
-0.289623
-0.317953
-0.349061
-0.383213
-0.420704
-0.461844
-0.506969
-0.556435
-0.610622
-0.669935
-0.734796
-0.805646
-0.882938
-0.967131
-1.05868
-1.15801
-1.26551
-1.3815
-1.50622
-1.63973
-1.78197
-1.93268
-2.09149
-2.25783
-2.43104
-2.61011
-2.79387
-2.98106
-3.17006
-3.35899
-3.54599
-3.72907
-3.9061
-4.07495
-4.23356
-4.37991
-4.5121
-4.62832
-4.72675
-4.8054
-4.86203
-4.9052
-4.93644
-4.94804
-4.94069
-4.9149
-4.87104
-4.80966
-4.73146
-4.6378
-4.53001
-4.40913
-4.27639
-4.13304
-3.98036
-3.81966
-3.65224
-3.47929
-3.3019
-3.12109
-2.93778
-2.75274
-2.56664
-2.38005
-2.19345
-2.0073
-1.82205
-1.63816
-1.45622
-1.27687
-1.10044
-0.919997
-0.73049
-0.533786
-0.333201
-0.13296
0.0625493
0.249537
0.425574
0.590129
0.744855
0.89346
1.04123
1.19419
1.35814
1.53745
1.73405
1.94653
2.16988
2.39603
2.61524
2.81778
2.99543
3.14251
3.25674
3.33957
3.39546
3.43107
3.45552
3.47287
3.48174
3.48424
3.48411
3.48329
3.48237
3.48104
3.4792
3.47689
3.47417
3.47107
3.46764
3.46391
3.4599
3.45565
3.45117
3.4465
3.44165
3.43663
3.43147
3.42618
3.42078
3.41529
3.40972
3.40412
3.3985
3.39291
3.38739
3.38198
3.37673
3.3717
3.36693
3.36247
3.35836
3.35463
3.35131
3.34842
3.34596
3.34392
3.34229
3.34105
3.34017
3.33961
3.33934
3.33931
3.33951
3.3399
3.34045
3.34114
3.34195
3.34289
3.34395
3.34514
3.34647
3.34798
3.34969
3.35156
3.35376
3.3567
0.0166261
-0.00532442
-0.0109158
-0.0227794
-0.033259
-0.0434248
-0.0516876
-0.0577458
-0.0615213
-0.063508
-0.0644683
-0.0652579
-0.0666068
-0.0690242
-0.072777
-0.0779354
-0.0844557
-0.0922417
-0.101201
-0.111274
-0.122435
-0.134705
-0.14814
-0.162829
-0.178886
-0.196447
-0.215668
-0.236722
-0.2598
-0.285113
-0.312882
-0.343356
-0.37679
-0.413475
-0.45371
-0.497825
-0.546168
-0.59912
-0.657084
-0.720488
-0.789787
-0.865452
-0.947971
-1.03783
-1.1355
-1.24142
-1.35595
-1.47935
-1.61173
-1.75293
-1.90262
-2.06041
-2.22564
-2.39777
-2.57581
-2.7584
-2.94449
-3.13234
-3.31917
-3.50335
-3.68382
-3.85813
-4.02414
-4.17984
-4.32338
-4.45307
-4.56743
-4.66521
-4.74539
-4.80682
-4.84801
-4.87366
-4.88556
-4.87996
-4.85724
-4.81774
-4.76177
-4.69103
-4.60715
-4.50991
-4.3997
-4.2779
-4.14568
-4.00411
-3.85412
-3.69742
-3.53535
-3.36864
-3.19811
-3.02445
-2.84804
-2.66902
-2.48739
-2.30301
-2.11575
-1.9257
-1.73335
-1.53954
-1.34517
-1.15085
-0.953284
-0.751626
-0.547528
-0.344712
-0.148243
0.0367936
0.206303
0.358054
0.492239
0.611708
0.72182
0.829987
0.944904
1.07548
1.2296
1.41272
1.6265
1.86779
2.12832
2.39569
2.65551
2.89413
3.10063
3.26767
3.39242
3.47747
3.53008
3.56149
3.57993
3.58769
3.5869
3.58134
3.57395
3.56661
3.5595
3.55219
3.54473
3.53716
3.52952
3.52183
3.51413
3.50642
3.49872
3.49102
3.48333
3.47565
3.46797
3.46029
3.45261
3.44493
3.43727
3.42963
3.42204
3.41453
3.40715
3.39994
3.39295
3.38623
3.37985
3.37385
3.36829
3.36319
3.3586
3.35453
3.351
3.34799
3.3455
3.3435
3.34195
3.34083
3.34008
3.33967
3.33954
3.33966
3.33999
3.3405
3.34117
3.34197
3.34289
3.34394
3.34512
3.34646
3.34796
3.34968
3.35155
3.3537
3.35704
0.0185069
-0.00438105
-0.00960184
-0.021578
-0.0320818
-0.0423614
-0.0507508
-0.0569445
-0.0608328
-0.0628938
-0.0638804
-0.0646499
-0.0659397
-0.0682691
-0.0719151
-0.0769548
-0.0833494
-0.0910045
-0.0998269
-0.109754
-0.120758
-0.132855
-0.146097
-0.160566
-0.176373
-0.193649
-0.212542
-0.233221
-0.255866
-0.280685
-0.307885
-0.33771
-0.370405
-0.406248
-0.44553
-0.488567
-0.5357
-0.587299
-0.643763
-0.705517
-0.773018
-0.846744
-0.9272
-1.01489
-1.11032
-1.21397
-1.32624
-1.44744
-1.57768
-1.71672
-1.86408
-2.01947
-2.18221
-2.35211
-2.527
-2.70578
-2.88872
-3.07339
-3.2576
-3.43932
-3.61659
-3.78722
-3.94917
-4.10053
-4.23958
-4.36478
-4.47487
-4.56881
-4.64583
-4.70536
-4.74685
-4.7714
-4.78094
-4.77557
-4.75494
-4.71953
-4.66983
-4.60649
-4.52979
-4.44021
-4.33873
-4.22632
-4.10384
-3.97194
-3.83435
-3.69392
-3.54837
-3.39653
-3.23887
-3.07638
-2.9095
-2.73797
-2.56153
-2.3791
-2.18947
-1.99129
-1.78419
-1.56982
-1.35198
-1.13364
-0.914794
-0.697361
-0.483985
-0.279499
-0.0900958
0.0789147
0.224087
0.34459
0.442396
0.522197
0.591061
0.658011
0.733444
0.828229
0.95266
1.11499
1.31979
1.56642
1.84824
2.15277
2.46312
2.76066
3.02814
3.25211
3.42364
3.53991
3.60668
3.63962
3.65565
3.66122
3.65691
3.6467
3.63406
3.6212
3.60927
3.59776
3.58656
3.5757
3.56517
3.55494
3.54498
3.53526
3.52574
3.51638
3.50714
3.49798
3.48887
3.47979
3.47072
3.46166
3.45262
3.44361
3.43468
3.42587
3.41723