/*--------------------------------*- C++ -*----------------------------------*\
| =========                 |                                                 |
| \\      /  F ield         | OpenFOAM: The Open Source CFD Toolbox           |
|  \\    /   O peration     | Version:  2406                                  |
|   \\  /    A nd           | Website:  www.openfoam.com                      |
|    \\/     M anipulation  |                                                 |
\*---------------------------------------------------------------------------*/
FoamFile
{
    version     2.0;
    format      ascii;
    arch        "LSB;label=32;scalar=64";
    class       surfaceScalarField;
    location    "500";
    object      phi;
}
// * * * * * * * * * * * * * * * * * * * * * * * * * * * * * * * * * * * * * //

dimensions      [0 3 -1 0 0 0 0];

oriented        oriented;

internalField   nonuniform List<scalar> 
10988
(
-8.28271e-05
1.31913e-06
-8.48368e-05
2.00963e-06
-8.67913e-05
1.9545e-06
-8.86637e-05
1.87237e-06
-9.03836e-05
1.71993e-06
-9.19261e-05
1.54251e-06
-9.3285e-05
1.35886e-06
-9.44768e-05
1.19179e-06
-9.55349e-05
1.05809e-06
-9.65024e-05
9.67489e-07
-9.74237e-05
9.21357e-07
-9.83378e-05
9.14108e-07
-9.92738e-05
9.35976e-07
-0.00010025
9.76204e-07
-0.000101275
1.02548e-06
-0.000102353
1.07731e-06
-0.000103481
1.12808e-06
-0.000104657
1.17653e-06
-0.00010588
1.22303e-06
-0.000107149
1.26865e-06
-0.000108464
1.31483e-06
-0.000109827
1.36283e-06
-0.00011124
1.41372e-06
-0.000112709
1.46825e-06
-0.000114236
1.52687e-06
-0.000115825
1.58986e-06
-0.000117483
1.65719e-06
-0.000119211
1.72873e-06
-0.000121015
1.80408e-06
-0.000122898
1.88279e-06
-0.000124862
1.96419e-06
-0.00012691
2.04748e-06
-0.000129042
2.13175e-06
-0.000131258
2.2159e-06
-0.000133556
2.29879e-06
-0.000135935
2.37904e-06
-0.000138391
2.45517e-06
-0.000140916
2.52558e-06
-0.000143505
2.58854e-06
-0.000146147
2.6422e-06
-0.000148832
2.68465e-06
-0.000151545
2.71383e-06
-0.000154273
2.7277e-06
-0.000156997
2.72424e-06
-0.000159699
2.70148e-06
-0.000162356
2.6576e-06
-0.000164947
2.59096e-06
-0.000167448
2.50019e-06
-0.000169832
2.38432e-06
-0.000172075
2.24268e-06
-0.00017415
2.07512e-06
-0.000176032
1.88183e-06
-0.000177695
1.66352e-06
-0.000179116
1.42131e-06
-0.000180273
1.1566e-06
-0.000181144
8.71192e-07
-0.000181711
5.66939e-07
-0.000181957
2.45786e-07
-0.000181865
-9.1804e-08
-0.000181412
-4.52962e-07
-0.000180572
-8.39663e-07
-0.000179327
-1.24535e-06
-0.00017766
-1.66701e-06
-0.000175557
-2.10305e-06
-0.000173005
-2.55237e-06
-0.00016999
-3.0143e-06
-0.000166502
-3.48862e-06
-0.000162526
-3.97548e-06
-0.000158051
-4.47558e-06
-0.00015306
-4.99018e-06
-0.000147539
-5.52109e-06
-0.000141469
-6.07074e-06
-0.000134827
-6.642e-06
-0.000127589
-7.23775e-06
-0.000119729
-7.85998e-06
-0.000111221
-8.508e-06
-0.000102046
-9.17469e-06
-9.22065e-05
-9.83961e-06
-8.17505e-05
-1.0456e-05
-7.08229e-05
-1.09277e-05
-5.97533e-05
-1.10695e-05
-4.92024e-05
-1.05509e-05
-4.0353e-05
-8.8494e-06
-3.49526e-05
-5.40044e-06
-3.44002e-05
-5.52464e-07
-3.74113e-05
3.01102e-06
-4.09372e-05
3.52604e-06
-4.35965e-05
2.65933e-06
-4.55741e-05
1.97766e-06
-4.7142e-05
1.56785e-06
-4.84356e-05
1.29364e-06
-4.95236e-05
1.08795e-06
-5.04454e-05
9.21841e-07
-5.12276e-05
7.82198e-07
-5.18898e-05
6.62156e-07
-5.24483e-05
5.58473e-07
-5.29171e-05
4.68723e-07
-5.33081e-05
3.90978e-07
-5.36315e-05
3.23438e-07
-5.38959e-05
2.64335e-07
-5.41304e-05
2.34518e-07
-5.4328e-05
1.97682e-07
-5.44804e-05
1.52412e-07
-5.4578e-05
9.76725e-08
-5.46109e-05
3.28975e-08
-5.4568e-05
-4.29345e-08
-5.44361e-05
-1.31925e-07
-5.42042e-05
-2.31893e-07
-5.38673e-05
-3.37037e-07
-5.34247e-05
-4.4261e-07
-5.28809e-05
-5.43766e-07
-5.22451e-05
-6.35856e-07
-5.15304e-05
-7.14664e-07
-5.07535e-05
-7.76908e-07
-4.99329e-05
-8.20603e-07
-4.90878e-05
-8.45089e-07
-4.82369e-05
-8.50881e-07
-4.73974e-05
-8.39478e-07
-4.65842e-05
-8.13185e-07
-4.58094e-05
-7.74828e-07
-4.5082e-05
-7.27406e-07
-4.44081e-05
-6.73839e-07
-4.37913e-05
-6.16844e-07
-4.32324e-05
-5.58825e-07
-4.27306e-05
-5.01756e-07
-4.22835e-05
-4.47122e-07
-4.18874e-05
-3.96067e-07
-4.15377e-05
-3.49709e-07
-4.11956e-05
-3.41987e-07
-4.08597e-05
-3.35961e-07
-4.0528e-05
-3.31689e-07
-4.01989e-05
-3.29072e-07
-3.98708e-05
-3.28026e-07
-3.95423e-05
-3.28475e-07
-3.9212e-05
-3.3034e-07
-3.88784e-05
-3.3353e-07
-3.85405e-05
-3.3795e-07
-3.8197e-05
-3.43493e-07
-3.78469e-05
-3.5005e-07
-3.74893e-05
-3.57523e-07
-3.71235e-05
-3.65801e-07
-3.67487e-05
-3.74737e-07
-3.63646e-05
-3.84152e-07
-3.59707e-05
-3.93852e-07
-3.5567e-05
-4.0365e-07
-3.51536e-05
-4.13354e-07
-3.47309e-05
-4.22728e-07
-3.42995e-05
-4.31475e-07
-3.38603e-05
-4.39256e-07
-3.34145e-05
-4.4574e-07
-3.29639e-05
-4.50612e-07
-3.25102e-05
-4.53552e-07
-3.2056e-05
-4.54213e-07
-3.16038e-05
-4.5224e-07
-3.11565e-05
-4.47296e-07
-3.07175e-05
-4.39091e-07
-3.02903e-05
-4.27395e-07
-2.98783e-05
-4.12066e-07
-2.94853e-05
-3.93064e-07
-2.91148e-05
-3.70457e-07
-2.87704e-05
-3.44433e-07
-2.8455e-05
-3.15313e-07
-2.81714e-05
-2.83543e-07
-2.79218e-05
-2.49649e-07
-2.77076e-05
-2.14195e-07
-2.75298e-05
-1.77805e-07
-2.73886e-05
-1.41151e-07
-2.72838e-05
-1.04845e-07
-2.72144e-05
-6.9323e-08
-2.71795e-05
-3.48971e-08
-2.71781e-05
-1.41403e-09
-2.72069e-05
2.88702e-08
-2.72624e-05
5.54644e-08
-2.73438e-05
8.13309e-08
-2.74514e-05
1.07675e-07
-2.75876e-05
1.36216e-07
-2.77573e-05
1.69662e-07
-2.79696e-05
2.12338e-07
-2.82406e-05
2.70967e-07
-2.85962e-05
3.5559e-07
-2.90762e-05
4.79996e-07
-2.97372e-05
6.61009e-07
-3.06537e-05
9.16493e-07
-3.19161e-05
1.26242e-06
-3.36136e-05
1.69741e-06
-3.58577e-05
2.2441e-06
4.14231e-06
-0.000119838
2.95827e-06
-0.00012252
4.69119e-06
-0.00012508
4.51459e-06
-0.000127553
4.34475e-06
-0.000129807
3.97459e-06
-0.000131807
3.54225e-06
-0.000133534
3.08604e-06
-0.000135009
2.66679e-06
-0.000136278
2.32734e-06
-0.000137405
2.09422e-06
-0.000138456
1.97241e-06
-0.000139491
1.94906e-06
-0.000140555
2.00017e-06
-0.000141678
2.09878e-06
-0.000142874
2.2212e-06
-0.000144147
2.3506e-06
-0.000145496
2.47749e-06
-0.000146918
2.5983e-06
-0.000148409
2.71367e-06
-0.000149966
2.82617e-06
-0.000151591
2.93918e-06
-0.000153284
3.05593e-06
-0.000155049
3.17895e-06
-0.000156891
3.31024e-06
-0.000158815
3.45094e-06
-0.000160827
3.60173e-06
-0.000162932
3.76267e-06
-0.000165137
3.93336e-06
-0.000167446
4.11308e-06
-0.000169864
4.30062e-06
-0.000172394
4.49451e-06
-0.000175039
4.6928e-06
-0.000177801
4.89335e-06
-0.000180679
5.0935e-06
-0.00018367
5.29039e-06
-0.000186772
5.48075e-06
-0.000189978
5.66097e-06
-0.000193279
5.82723e-06
-0.000196666
5.97536e-06
-0.000200125
6.10106e-06
-0.00020364
6.19978e-06
-0.000207193
6.26689e-06
-0.000210763
6.29773e-06
-0.000214327
6.28782e-06
-0.000217858
6.23278e-06
-0.000221329
6.12871e-06
-0.000224711
5.97213e-06
-0.000227971
5.76024e-06
-0.000231077
5.49105e-06
-0.000233998
5.16341e-06
-0.0002367
4.77708e-06
-0.000239151
4.33285e-06
-0.00024132
3.83233e-06
-0.000243177
3.27808e-06
-0.000244693
2.67322e-06
-0.000245844
2.02143e-06
-0.000246603
1.32636e-06
-0.000246948
5.91266e-07
-0.000246858
-1.82104e-07
-0.000246313
-9.98476e-07
-0.000245292
-1.85984e-06
-0.000243779
-2.75913e-06
-0.000241755
-3.69062e-06
-0.000239207
-4.65077e-06
-0.000236123
-5.63693e-06
-0.00023249
-6.64725e-06
-0.000228298
-7.68059e-06
-0.000223537
-8.73661e-06
-0.000218197
-9.81571e-06
-0.000212268
-1.09192e-05
-0.00020574
-1.2049e-05
-0.000198603
-1.32078e-05
-0.000190846
-1.43982e-05
-0.000182462
-1.56218e-05
-0.000173445
-1.68771e-05
-0.000163798
-1.81555e-05
-0.000153537
-1.94349e-05
-0.000142709
-2.06683e-05
-0.0001314
-2.17653e-05
-0.000119763
-2.25639e-05
-0.000108043
-2.27902e-05
-9.65762e-05
-2.20176e-05
-8.57607e-05
-1.96649e-05
-7.59964e-05
-1.51646e-05
-6.80108e-05
-8.53815e-06
-6.37408e-05
-1.25896e-06
-6.39613e-05
3.74648e-06
-6.64667e-05
5.16464e-06
-6.90926e-05
4.60357e-06
-7.13366e-05
3.8118e-06
-7.32154e-05
3.17239e-06
-7.47843e-05
2.65688e-06
-7.60876e-05
2.22501e-06
-7.71642e-05
1.85887e-06
-7.80479e-05
1.54582e-06
-7.87675e-05
1.27808e-06
-7.93474e-05
1.04871e-06
-7.98084e-05
8.52024e-07
-8.0168e-05
6.82989e-07
-8.04406e-05
5.36958e-07
-8.06591e-05
4.5306e-07
-8.08144e-05
3.52966e-07
-8.08958e-05
2.33831e-07
-8.08916e-05
9.34302e-08
-8.07885e-05
-7.01741e-08
-8.05729e-05
-2.58519e-07
-8.02352e-05
-4.69584e-07
-7.97701e-05
-6.97024e-07
-7.91742e-05
-9.32905e-07
-7.84493e-05
-1.16754e-06
-7.76028e-05
-1.39034e-06
-7.66477e-05
-1.59093e-06
-7.5602e-05
-1.76022e-06
-7.44877e-05
-1.89125e-06
-7.33285e-05
-1.97977e-06
-7.21492e-05
-2.02451e-06
-7.0973e-05
-2.02702e-06
-6.98214e-05
-1.99112e-06
-6.87122e-05
-1.92236e-06
-6.76599e-05
-1.82723e-06
-6.66747e-05
-1.7126e-06
-6.57633e-05
-1.58515e-06
-6.49291e-05
-1.451e-06
-6.41725e-05
-1.31537e-06
-6.34918e-05
-1.18247e-06
-6.28834e-05
-1.05548e-06
-6.23427e-05
-9.3667e-07
-6.18649e-05
-8.27507e-07
-6.13977e-05
-8.09193e-07
-6.09387e-05
-7.94972e-07
-6.04857e-05
-7.84696e-07
-6.00366e-05
-7.78177e-07
-5.95893e-05
-7.75228e-07
-5.91421e-05
-7.75665e-07
-5.86932e-05
-7.79296e-07
-5.82408e-05
-7.85917e-07
-5.77834e-05
-7.95315e-07
-5.73196e-05
-8.0727e-07
-5.68481e-05
-8.21557e-07
-5.63677e-05
-8.37925e-07
-5.58775e-05
-8.56089e-07
-5.53765e-05
-8.75719e-07
-5.48642e-05
-8.96446e-07
-5.43401e-05
-9.17866e-07
-5.38042e-05
-9.39534e-07
-5.32566e-05
-9.60944e-07
-5.26979e-05
-9.81508e-07
-5.21288e-05
-1.00057e-06
-5.15505e-05
-1.01742e-06
-5.09649e-05
-1.03134e-06
-5.0374e-05
-1.04155e-06
-4.97804e-05
-1.04723e-06
-4.91871e-05
-1.04755e-06
-4.85977e-05
-1.04167e-06
-4.80162e-05
-1.02885e-06
-4.74468e-05
-1.00847e-06
-4.68941e-05
-9.80037e-07
-4.6363e-05
-9.43195e-07
-4.58582e-05
-8.97784e-07
-4.53846e-05
-8.43926e-07
-4.49469e-05
-7.82054e-07
-4.45493e-05
-7.12882e-07
-4.41955e-05
-6.37349e-07
-4.38886e-05
-5.5659e-07
-4.36308e-05
-4.71913e-07
-4.34239e-05
-3.8475e-07
-4.32685e-05
-2.96536e-07
-4.31647e-05
-2.0854e-07
-4.31123e-05
-1.21699e-07
-4.31105e-05
-3.66743e-08
-4.31563e-05
4.43761e-08
-4.3247e-05
1.19527e-07
-4.33826e-05
1.91143e-07
-4.35642e-05
2.62882e-07
-4.37941e-05
3.37585e-07
-4.40767e-05
4.18926e-07
-4.4419e-05
5.1189e-07
-4.48298e-05
6.23176e-07
-4.53204e-05
7.61523e-07
-4.59026e-05
9.37806e-07
-4.65871e-05
1.16442e-06
-4.73797e-05
1.45361e-06
-4.82785e-05
1.81521e-06
-4.92699e-05
2.25382e-06
-5.03161e-05
2.74361e-06
-5.13566e-05
3.28457e-06
5.21916e-06
-0.000160577
4.99384e-06
-0.000163986
8.09976e-06
-0.000167232
7.7608e-06
-0.000170385
7.49779e-06
-0.00017326
6.84963e-06
-0.000175804
6.08564e-06
-0.000177985
5.26746e-06
-0.000179827
4.50906e-06
-0.00018139
3.88964e-06
-0.000182755
3.46014e-06
-0.000184015
3.23172e-06
-0.000185248
3.18262e-06
-0.000186518
3.27004e-06
-0.000187865
3.44513e-06
-0.000189308
3.66463e-06
-0.000190855
3.89736e-06
-0.000192503
4.12557e-06
-0.000194247
4.34238e-06
-0.000196082
4.54855e-06
-0.000198004
4.74861e-06
-0.000200014
4.94853e-06
-0.000202112
5.15411e-06
-0.000204303
5.36996e-06
-0.000206592
5.59968e-06
-0.000208987
5.84542e-06
-0.000211493
6.10837e-06
-0.000214119
6.38878e-06
-0.000216872
6.68598e-06
-0.000219758
6.99876e-06
-0.000222782
7.32502e-06
-0.00022595
7.66225e-06
-0.000229264
8.00708e-06
-0.000232727
8.3557e-06
-0.000236337
8.70353e-06
-0.000240092
9.04548e-06
-0.000243987
9.37586e-06
-0.000248014
9.68834e-06
-0.000252163
9.97629e-06
-0.00025642
1.02325e-05
-0.000260769
1.04495e-05
-0.000265189
1.06196e-05
-0.000269657
1.0735e-05
-0.000274147
1.07877e-05
-0.000278629
1.07704e-05
-0.000283072
1.06758e-05
-0.000287441
1.04974e-05
-0.000291699
1.02297e-05
-0.000295807
9.86812e-06
-0.000299725
9.40949e-06
-0.000303414
8.85212e-06
-0.000306833
8.19576e-06
-0.000309942
7.44189e-06
-0.000312703
6.59331e-06
-0.000315079
5.65442e-06
-0.000317036
4.63057e-06
-0.000318543
3.52796e-06
-0.000319569
2.35294e-06
-0.000320089
1.11136e-06
-0.000320079
-1.92387e-07
-0.000319519
-1.55901e-06
-0.000318388
-2.99e-06
-0.000316669
-4.4783e-06
-0.000314344
-6.01546e-06
-0.0003114
-7.59543e-06
-0.000307823
-9.21332e-06
-0.000303605
-1.08653e-05
-0.000298738
-1.25483e-05
-0.000293214
-1.42604e-05
-0.000287029
-1.60003e-05
-0.000280181
-1.77677e-05
-0.000272667
-1.95627e-05
-0.00026449
-2.13852e-05
-0.000255654
-2.32342e-05
-0.00024617
-2.51055e-05
-0.000236058
-2.69889e-05
-0.000225351
-2.88629e-05
-0.000214099
-3.06866e-05
-0.000202379
-3.23882e-05
-0.000190297
-3.38478e-05
-0.000177984
-3.48766e-05
-0.000165581
-3.51936e-05
-0.000153186
-3.44123e-05
-0.00014079
-3.20608e-05
-0.000128272
-2.76828e-05
-0.000115739
-2.10707e-05
-0.000104391
-1.26071e-05
-9.69788e-05
-3.66575e-06
-9.49304e-05
3.11629e-06
-9.63747e-05
6.04778e-06
-9.86944e-05
6.13153e-06
-0.000100853
5.3311e-06
-0.000102687
4.49027e-06
-0.00010423
3.76874e-06
-0.00010552
3.14825e-06
-0.000106579
2.60479e-06
-0.000107437
2.13581e-06
-0.000108122
1.73373e-06
-0.000108659
1.38982e-06
-0.000109072
1.09535e-06
-0.000109377
8.41977e-07
-0.00010961
6.86624e-07
-0.000109761
5.03505e-07
-0.000109815
2.87946e-07
-0.000109758
3.61566e-08
-0.000109573
-2.54528e-07
-0.000109248
-5.83965e-07
-0.00010877
-9.47243e-07
-0.000108132
-1.33526e-06
-0.00010733
-1.73506e-06
-0.000106367
-2.13049e-06
-0.000105253
-2.50383e-06
-0.000104007
-2.83765e-06
-0.00010265
-3.11667e-06
-0.000101212
-3.3294e-06
-9.97226e-05
-3.46912e-06
-9.8213e-05
-3.53411e-06
-9.67126e-05
-3.52736e-06
-9.5248e-05
-3.45581e-06
-9.38411e-05
-3.3292e-06
-9.25094e-05
-3.15886e-06
-9.12654e-05
-2.95661e-06
-9.01167e-05
-2.73383e-06
-8.90669e-05
-2.50077e-06
-8.81161e-05
-2.26616e-06
-8.72616e-05
-2.03693e-06
-8.64988e-05
-1.81826e-06
-8.58217e-05
-1.61367e-06
-8.5224e-05
-1.42523e-06
-8.46401e-05
-1.39298e-06
-8.40673e-05
-1.3678e-06
-8.35026e-05
-1.34938e-06
-8.29433e-05
-1.33739e-06
-8.2387e-05
-1.33148e-06
-8.18314e-05
-1.33133e-06
-8.12741e-05
-1.33659e-06
-8.07131e-05
-1.34692e-06
-8.01464e-05
-1.36196e-06
-7.95723e-05
-1.38134e-06
-7.89892e-05
-1.40467e-06
-7.83956e-05
-1.4315e-06
-7.77903e-05
-1.46134e-06
-7.71724e-05
-1.49362e-06
-7.65411e-05
-1.52774e-06
-7.58959e-05
-1.56299e-06
-7.52368e-05
-1.59861e-06
-7.4564e-05
-1.63371e-06
-7.38783e-05
-1.66727e-06
-7.31806e-05
-1.69821e-06
-7.24727e-05
-1.72533e-06
-7.17567e-05
-1.74736e-06
-7.10353e-05
-1.76298e-06
-7.03117e-05
-1.77077e-06
-6.95899e-05
-1.76934e-06
-6.88743e-05
-1.75733e-06
-6.81697e-05
-1.73347e-06
-6.74817e-05
-1.69665e-06
-6.68159e-05
-1.64597e-06
-6.61784e-05
-1.58085e-06
-6.55751e-05
-1.50106e-06
-6.50121e-05
-1.40682e-06
-6.44952e-05
-1.29885e-06
-6.40298e-05
-1.17827e-06
-6.36205e-05
-1.04665e-06
-6.32711e-05
-9.05916e-07
-6.29847e-05
-7.58325e-07
-6.27631e-05
-6.06329e-07
-6.26072e-05
-4.52377e-07
-6.2517e-05
-2.98706e-07
-6.24916e-05
-1.47132e-07
-6.2529e-05
8.12632e-10
-6.26249e-05
1.40244e-07
-6.27756e-05
2.70247e-07
-6.29802e-05
3.95685e-07
-6.32362e-05
5.18943e-07
-6.35415e-05
6.42884e-07
-6.38933e-05
7.70827e-07
-6.42883e-05
9.06816e-07
-6.47209e-05
1.05581e-06
-6.51833e-05
1.22394e-06
-6.56644e-05
1.41886e-06
-6.61499e-05
1.64986e-06
-6.66236e-05
1.92727e-06
-6.70693e-05
2.26088e-06
-6.74719e-05
2.65647e-06
-6.78123e-05
3.08395e-06
-6.80683e-05
3.54055e-06
5.38086e-06
-0.000209199
7.49834e-06
-0.000213422
1.23235e-05
-0.00021745
1.17887e-05
-0.000221375
1.14221e-05
-0.000224955
1.04297e-05
-0.000228119
9.24983e-06
-0.000230824
7.97305e-06
-0.000233098
6.7823e-06
-0.000235012
5.80423e-06
-0.000236674
5.12194e-06
-0.000238197
4.75509e-06
-0.000239686
4.67085e-06
-0.000241218
4.80252e-06
-0.000242846
5.07327e-06
-0.000244596
5.4147e-06
-0.000246476
5.77731e-06
-0.000248483
6.13267e-06
-0.000250611
6.46959e-06
-0.000252851
6.78898e-06
-0.0002552
7.09781e-06
-0.000257657
7.40536e-06
-0.000260224
7.7207e-06
-0.000262905
8.05109e-06
-0.000265707
8.40217e-06
-0.000268639
8.77736e-06
-0.000271709
9.17856e-06
-0.000274927
9.6062e-06
-0.0002783
1.00593e-05
-0.000281837
1.05361e-05
-0.000285546
1.10333e-05
-0.000289431
1.15472e-05
-0.000293496
1.20726e-05
-0.000297744
1.26037e-05
-0.000302174
1.31335e-05
-0.000306783
1.36542e-05
-0.000311564
1.41572e-05
-0.000316509
1.46328e-05
-0.000321603
1.5071e-05
-0.000326832
1.54608e-05
-0.000332173
1.57911e-05
-0.000337604
1.60502e-05
-0.000343095
1.62264e-05
-0.000348616
1.63079e-05
-0.000354129
1.62838e-05
-0.000359596
1.61432e-05
-0.000364976
1.58766e-05
-0.000370222
1.54759e-05
-0.000375288
1.49343e-05
-0.000380126
1.42473e-05
-0.000384686
1.34124e-05
-0.00038892
1.24293e-05
-0.000392778
1.13003e-05
-0.000396215
1.00299e-05
-0.000399185
8.62455e-06
-0.000401647
7.09271e-06
-0.000403563
5.44396e-06
-0.000404899
3.68852e-06
-0.000405623
1.83631e-06
-0.000405712
-1.04231e-07
-0.000405143
-2.12804e-06
-0.000403898
-4.23431e-06
-0.000401961
-6.41572e-06
-0.000399315
-8.66109e-06
-0.00039595
-1.09611e-05
-0.000391855
-1.33076e-05
-0.000387027
-1.56933e-05
-0.000381463
-1.81121e-05
-0.000375165
-2.05584e-05
-0.000368138
-2.30275e-05
-0.000360391
-2.55151e-05
-0.000351937
-2.80166e-05
-0.000342796
-3.05263e-05
-0.000332994
-3.30362e-05
-0.000322566
-3.55332e-05
-0.000311558
-3.79965e-05
-0.000300029
-4.03918e-05
-0.000288051
-4.26654e-05
-0.000275705
-4.4734e-05
-0.000263078
-4.64741e-05
-0.000250246
-4.77092e-05
-0.000237241
-4.81987e-05
-0.000224017
-4.76366e-05
-0.00021041
-4.56676e-05
-0.000196155
-4.19375e-05
-0.00018104
-3.61855e-05
-0.000165276
-2.83709e-05
-0.000150091
-1.88513e-05
-0.000138273
-8.70112e-06
-0.000132202
-2.31638e-08
-0.000131216
5.14463e-06
-0.000132791
6.90606e-06
-0.00013485
6.54958e-06
-0.00013673
5.64864e-06
-0.00013832
4.73817e-06
-0.000139644
3.92885e-06
-0.000140742
3.23426e-06
-0.000141639
2.63087e-06
-0.000142356
2.10665e-06
-0.000142914
1.6537e-06
-0.000143334
1.26178e-06
-0.000143663
1.0154e-06
-0.000143886
7.26532e-07
-0.000143987
3.88372e-07
-0.000143945
-4.98457e-09
-0.000143743
-4.56887e-07
-0.00014336
-9.66622e-07
-0.000142781
-1.52677e-06
-0.000141993
-2.12308e-06
-0.000140993
-2.73518e-06
-0.000139785
-3.33812e-06
-0.000138384
-3.9048e-06
-0.000136813
-4.40883e-06
-0.000135102
-4.82733e-06
-0.000133288
-5.14327e-06
-0.000131411
-5.34685e-06
-0.000129509
-5.43598e-06
-0.000127621
-5.41576e-06
-0.000125779
-5.29722e-06
-0.000124013
-5.09554e-06
-0.000122343
-4.82823e-06
-0.000120787
-4.51344e-06
-0.000119352
-4.16853e-06
-0.000118044
-3.80904e-06
-0.000116862
-3.4481e-06
-0.000115803
-3.09611e-06
-0.00011486
-2.7608e-06
-0.000114026
-2.44738e-06
-0.000113292
-2.15895e-06
-0.000112578
-2.10746e-06
-0.000111879
-2.06671e-06
-0.000111192
-2.03627e-06
-0.000110514
-2.01564e-06
-0.000109841
-2.00431e-06
-0.000109171
-2.00176e-06
-0.0001085
-2.00747e-06
-0.000107826
-2.02091e-06
-0.000107146
-2.04152e-06
-0.000106459
-2.06871e-06
-0.000105762
-2.10187e-06
-0.000105053
-2.14029e-06
-0.000104331
-2.18322e-06
-0.000103595
-2.2298e-06
-0.000102843
-2.27907e-06
-0.000102076
-2.32996e-06
-0.000101294
-2.38127e-06
-0.000100496
-2.43166e-06
-9.96833e-05
-2.47962e-06
-9.88579e-05
-2.52352e-06
-9.80217e-05
-2.56157e-06
-9.71772e-05
-2.59187e-06
-9.63278e-05
-2.61242e-06
-9.54773e-05
-2.62119e-06
-9.46305e-05
-2.61611e-06
-9.37926e-05
-2.59524e-06
-9.29693e-05
-2.55678e-06
-9.21668e-05
-2.49917e-06
-9.13916e-05
-2.42119e-06
-9.06503e-05
-2.32208e-06
-8.99497e-05
-2.20166e-06
-8.92961e-05
-2.06038e-06
-8.86955e-05
-1.8994e-06
-8.81533e-05
-1.72055e-06
-8.76736e-05
-1.52634e-06
-8.72596e-05
-1.31988e-06
-8.69131e-05
-1.10478e-06
-8.66345e-05
-8.84914e-07
-8.64226e-05
-6.64202e-07
-8.6275e-05
-4.46345e-07
-8.61875e-05
-2.34568e-07
-8.6155e-05
-3.16443e-08
-8.61733e-05
1.58535e-07
-8.62376e-05
3.34511e-07
-8.63408e-05
4.98915e-07
-8.6476e-05
6.5419e-07
-8.66362e-05
8.03109e-07
-8.68144e-05
9.49047e-07
-8.70038e-05
1.09616e-06
-8.71975e-05
1.24954e-06
-8.73891e-05
1.41553e-06
-8.75723e-05
1.60197e-06
-8.77408e-05
1.81837e-06
-8.78887e-05
2.07515e-06
-8.801e-05
2.38212e-06
-8.80987e-05
2.74511e-06
-8.81456e-05
3.13086e-06
-8.81361e-05
3.53095e-06
5.18899e-06
-0.000267027
1.05106e-05
-0.000272095
1.7391e-05
-0.000276936
1.66298e-05
-0.000281655
1.61418e-05
-0.000285958
1.47322e-05
-0.000289755
1.30466e-05
-0.000292993
1.12113e-05
-0.000295705
9.4943e-06
-0.000297981
8.08058e-06
-0.000299952
7.0923e-06
-0.000301755
6.55893e-06
-0.000303518
6.43349e-06
-0.000305335
6.61968e-06
-0.000307268
7.00642e-06
-0.000309348
7.49483e-06
-0.000311584
8.01332e-06
-0.000313973
8.52074e-06
-0.000316504
9.00087e-06
-0.00031917
9.45492e-06
-0.000321965
9.89291e-06
-0.000324888
1.03282e-05
-0.000327941
1.07738e-05
-0.00033113
1.12402e-05
-0.000334463
1.17356e-05
-0.000337951
1.22648e-05
-0.000341603
1.28306e-05
-0.00034543
1.34338e-05
-0.000349444
1.40728e-05
-0.000353653
1.47453e-05
-0.000358066
1.54467e-05
-0.000362691
1.61717e-05
-0.000367531
1.6913e-05
-0.00037259
1.76625e-05
-0.000377867
1.84104e-05
-0.000383358
1.91457e-05
-0.000389058
1.98562e-05
-0.000394953
2.05287e-05
-0.000401031
2.11488e-05
-0.000407272
2.17012e-05
-0.000413651
2.21704e-05
-0.000420141
2.25399e-05
-0.000426707
2.27933e-05
-0.000433314
2.29143e-05
-0.000439917
2.28872e-05
-0.000446471
2.26971e-05
-0.000452925
2.23307e-05
-0.000459226
2.17763e-05
-0.000465316
2.10247e-05
-0.000471138
2.00695e-05
-0.000476633
1.8907e-05
-0.000481741
1.75372e-05
-0.000486404
1.59632e-05
-0.000490565
1.41913e-05
-0.000494172
1.22313e-05
-0.000497174
1.00951e-05
-0.000499527
7.79701e-06
-0.000501191
5.35251e-06
-0.000502132
2.77738e-06
-0.000502323
8.66821e-08
-0.000501745
-2.7061e-06
-0.000500384
-5.59561e-06
-0.000498226
-8.57342e-06
-0.000495262
-1.16255e-05
-0.000491485
-1.47381e-05
-0.000486894
-1.78985e-05
-0.000481493
-2.10944e-05
-0.000475291
-2.43143e-05
-0.000468302
-2.75474e-05
-0.000460546
-3.0783e-05
-0.000452051
-3.40107e-05
-0.000442848
-3.72189e-05
-0.00043298
-4.03945e-05
-0.000422495
-4.3521e-05
-0.000411452
-4.65766e-05
-0.000399917
-4.95314e-05
-0.000387965
-5.23437e-05
-0.000375675
-5.49552e-05
-0.000363124
-5.72855e-05
-0.000350372
-5.92256e-05
-0.00033745
-6.06319e-05
-0.000324326
-6.13219e-05
-0.000310888
-6.10745e-05
-0.000296916
-5.96402e-05
-0.000282091
-5.67624e-05
-0.00026606
-5.2216e-05
-0.000248573
-4.58582e-05
-0.00022973
-3.76948e-05
-0.000210454
-2.79773e-05
-0.000193103
-1.73736e-05
-0.000180759
-7.19918e-06
-0.000174506
6.5314e-07
-0.000173143
5.18606e-06
-0.000174396
6.9019e-06
-0.000176331
6.67286e-06
-0.000178147
5.74519e-06
-0.000179689
4.77643e-06
-0.00018095
3.89168e-06
-0.000181968
3.12422e-06
-0.000182783
2.46929e-06
-0.000183424
1.90236e-06
-0.000183956
1.54749e-06
-0.000184355
1.12539e-06
-0.000184593
6.26272e-07
-0.00018464
4.27835e-08
-0.00018447
-6.27103e-07
-0.000184057
-1.3795e-06
-0.000183382
-2.202e-06
-0.000182433
-3.07275e-06
-0.000181206
-3.96169e-06
-0.000179711
-4.83294e-06
-0.000177968
-5.64806e-06
-0.000176007
-6.37003e-06
-0.000173867
-6.96701e-06
-0.000171595
-7.41548e-06
-0.000169239
-7.70212e-06
-0.000166851
-7.82443e-06
-0.000164477
-7.79003e-06
-0.000162159
-7.6149e-06
-0.000159934
-7.32098e-06
-0.000157828
-6.93351e-06
-0.000155863
-6.47852e-06
-0.000154051
-5.98081e-06
-0.000152397
-5.46252e-06
-0.000150903
-4.94228e-06
-0.000149564
-4.43488e-06
-0.000148374
-3.95133e-06
-0.000147322
-3.49915e-06
-0.000146398
-3.08287e-06
-0.000145501
-3.00466e-06
-0.000144626
-2.94148e-06
-0.00014377
-2.89292e-06
-0.000142927
-2.85837e-06
-0.000142094
-2.83714e-06
-0.000141267
-2.82856e-06
-0.000140443
-2.83189e-06
-0.000139617
-2.8464e-06
-0.000138787
-2.87129e-06
-0.00013795
-2.9057e-06
-0.000137103
-2.94873e-06
-0.000136244
-2.99936e-06
-0.000135371
-3.05647e-06
-0.000134482
-3.11883e-06
-0.000133576
-3.18504e-06
-0.000132652
-3.25356e-06
-0.000131711
-3.32264e-06
-0.000130752
-3.39036e-06
-0.000129777
-3.45461e-06
-0.000128788
-3.51308e-06
-0.000127786
-3.5633e-06
-0.000126775
-3.60262e-06
-0.00012576
-3.62835e-06
-0.000124743
-3.6377e-06
-0.000123731
-3.62798e-06
-0.00012273
-3.59659e-06
-0.000121745
-3.5412e-06
-0.000120785
-3.45984e-06
-0.000119855
-3.35106e-06
-0.000118963
-3.21403e-06
-0.000118116
-3.04876e-06
-0.00011732
-2.85614e-06
-0.000116582
-2.638e-06
-0.000115905
-2.3971e-06
-0.000115294
-2.13709e-06
-0.000114752
-1.86239e-06
-0.000114278
-1.57808e-06
-0.000113874
-1.2896e-06
-0.000113536
-1.0024e-06
-0.00011326
-7.21642e-07
-0.000113043
-4.51869e-07
-0.000112878
-1.96885e-07
-0.00011276
4.04943e-08
-0.000112683
2.58112e-07
-0.000112641
4.56372e-07
-0.000112625
6.38163e-07
-0.000112628
8.06583e-07
-0.000112645
9.65539e-07
-0.000112668
1.11978e-06
-0.000112694
1.275e-06
-0.000112716
1.43796e-06
-0.000112731
1.61676e-06
-0.000112733
1.82078e-06
-0.000112718
2.05993e-06
-0.000112679
2.34337e-06
-0.000112611
2.67691e-06
-0.000112506
3.02547e-06
-0.000112351
3.37586e-06
4.81165e-06
-0.000333656
1.40078e-05
-0.000339484
2.32195e-05
-0.000345059
2.22047e-05
-0.000350487
2.15698e-05
-0.000355425
1.96695e-05
-0.00035977
1.73915e-05
-0.000363463
1.49053e-05
-0.000366548
1.25785e-05
-0.000369131
1.06638e-05
-0.000371366
9.32726e-06
-0.000373415
8.60783e-06
-0.000375422
8.4404e-06
-0.000377495
8.6933e-06
-0.000379704
9.21546e-06
-0.000382083
9.87298e-06
-0.000384638
1.05693e-05
-0.000387367
1.12491e-05
-0.000390257
1.18909e-05
-0.000393298
1.24965e-05
-0.000396485
1.30798e-05
-0.000399816
1.36589e-05
-0.000403294
1.42515e-05
-0.000406925
1.48717e-05
-0.00041072
1.55306e-05
-0.00041469
1.62349e-05
-0.000418848
1.69883e-05
-0.000423206
1.77918e-05
-0.000427777
1.86436e-05
-0.000432572
1.95404e-05
-0.000437602
2.04764e-05
-0.000442874
2.14444e-05
-0.000448396
2.24351e-05
-0.000454171
2.34375e-05
-0.0004602
2.4439e-05
-0.000466479
2.5425e-05
-0.000473003
2.63795e-05
-0.000479759
2.72848e-05
-0.000486732
2.81219e-05
-0.000493901
2.88706e-05
-0.000501241
2.95097e-05
-0.000508718
3.00175e-05
-0.000516297
3.03718e-05
-0.000523933
3.05507e-05
-0.000531579
3.05328e-05
-0.00053918
3.02981e-05
-0.000546678
2.98284e-05
-0.00055401
2.91079e-05
-0.000561109
2.81239e-05
-0.000567907
2.68676e-05
-0.000574334
2.53342e-05
-0.00058032
2.35234e-05
-0.000585797
2.14395e-05
-0.000590697
1.90913e-05
-0.000594958
1.64921e-05
-0.000598521
1.3659e-05
-0.000601337
1.06123e-05
-0.000603359
7.37466e-06
-0.000604552
3.97019e-06
-0.000604889
4.23785e-07
-0.000604356
-3.23851e-06
-0.000602948
-7.00374e-06
-0.00060066
-1.08622e-05
-0.000597489
-1.47965e-05
-0.000593439
-1.87876e-05
-0.000588521
-2.28162e-05
-0.000582753
-2.68631e-05
-0.000576157
-3.09097e-05
-0.000568767
-3.49377e-05
-0.000560621
-3.89289e-05
-0.000551767
-4.2865e-05
-0.000542259
-4.67269e-05
-0.00053216
-5.04938e-05
-0.000521538
-5.41422e-05
-0.000510471
-5.76441e-05
-0.000499037
-6.09651e-05
-0.000487318
-6.40627e-05
-0.00047539
-6.68828e-05
-0.000463319
-6.93574e-05
-0.000451143
-7.14011e-05
-0.000438866
-7.2909e-05
-0.000426433
-7.3755e-05
-0.000413714
-7.3793e-05
-0.000400493
-7.28619e-05
-0.00038646
-7.07954e-05
-0.000371237
-6.74384e-05
-0.000354428
-6.26672e-05
-0.000335707
-5.6416e-05
-0.000314981
-4.87039e-05
-0.000292686
-3.96679e-05
-0.000270264
-2.96211e-05
-0.000250425
-1.91861e-05
-0.000235794
-9.44503e-06
-0.000227072
-1.8197e-06
-0.000223443
3.04334e-06
-0.000223244
5.54668e-06
-0.000224632
6.16408e-06
-0.000226332
5.59112e-06
-0.000227859
4.65126e-06
-0.000229113
3.72343e-06
-0.000230087
2.87683e-06
-0.000230885
2.34521e-06
-0.000231487
1.72715e-06
-0.000231871
1.01027e-06
-0.000232007
1.79121e-07
-0.000231861
-7.7332e-07
-0.000231398
-1.84223e-06
-0.000230592
-3.0081e-06
-0.000229428
-4.23648e-06
-0.000227908
-5.48215e-06
-0.000226047
-6.69345e-06
-0.000223878
-7.81743e-06
-0.000221443
-8.80529e-06
-0.000218793
-9.61684e-06
-0.000215985
-1.02236e-05
-0.000213076
-1.06104e-05
-0.000210126
-1.0775e-05
-0.000207188
-1.07275e-05
-0.000204315
-1.04885e-05
-0.000201549
-1.00868e-05
-0.000198926
-9.55635e-06
-0.000196472
-8.93287e-06
-0.000194202
-8.25027e-06
-0.000192126
-7.53876e-06
-0.000190245
-6.82363e-06
-0.000188555
-6.12495e-06
-0.000187048
-5.45771e-06
-0.000185715
-4.83231e-06
-0.000184543
-4.25516e-06
-0.000183404
-4.14319e-06
-0.000182295
-4.05079e-06
-0.00018121
-3.97781e-06
-0.000180145
-3.92364e-06
-0.000179094
-3.88753e-06
-0.000178054
-3.86865e-06
-0.00017702
-3.86611e-06
-0.000175987
-3.87898e-06
-0.000174952
-3.9062e-06
-0.000173912
-3.94664e-06
-0.000172861
-3.99906e-06
-0.000171798
-4.06207e-06
-0.000170721
-4.13411e-06
-0.000169626
-4.21347e-06
-0.000168513
-4.2982e-06
-0.00016738
-4.38616e-06
-0.000166228
-4.47496e-06
-0.000165057
-4.56196e-06
-0.000163867
-4.64429e-06
-0.000162661
-4.71884e-06
-0.000161442
-4.7823e-06
-0.000160213
-4.83118e-06
-0.00015898
-4.8619e-06
-0.000157747
-4.87089e-06
-0.00015652
-4.85465e-06
-0.000155307
-4.80992e-06
-0.000154114
-4.73383e-06
-0.00015295
-4.62399e-06
-0.000151822
-4.47877e-06
-0.000150739
-4.2974e-06
-0.000149708
-4.08013e-06
-0.000148736
-3.8284e-06
-0.000147829
-3.54484e-06
-0.000146993
-3.23333e-06
-0.000146231
-2.89887e-06
-0.000145546
-2.54742e-06
-0.000144938
-2.18568e-06
-0.000144407
-1.82074e-06
-0.00014395
-1.45974e-06
-0.000143562
-1.10941e-06
-0.000143238
-7.75639e-07
-0.000142972
-4.63268e-07
-0.000142756
-1.75662e-07
-0.000142583
8.52075e-08
-0.000142445
3.19154e-07
-0.000142336
5.28448e-07
-0.000142246
7.16819e-07
-0.000142169
8.88793e-07
-0.000142099
1.04981e-06
-0.00014203
1.20619e-06
-0.000141958
1.36522e-06
-0.000141876
1.53519e-06
-0.000141781
1.72533e-06
-0.000141666
1.94499e-06
-0.000141525
2.20272e-06
-0.000141353
2.50417e-06
-0.00014114
2.81235e-06
-0.000140878
3.11455e-06
4.29788e-06
-0.000406621
1.78735e-05
-0.000412967
2.95654e-05
-0.000419039
2.8277e-05
-0.000424937
2.74673e-05
-0.000430283
2.50153e-05
-0.000434968
2.2077e-05
-0.000438934
1.88716e-05
-0.000442233
1.5877e-05
-0.000444988
1.3419e-05
-0.000447371
1.17097e-05
-0.000449558
1.07958e-05
-0.000451708
1.059e-05
-0.000453935
1.09204e-05
-0.000456311
1.15918e-05
-0.000458871
1.24323e-05
-0.00046162
1.33188e-05
-0.000464553
1.41814e-05
-0.000467655
1.49935e-05
-0.000470917
1.57582e-05
-0.000474331
1.64937e-05
-0.000477895
1.72235e-05
-0.000481614
1.79705e-05
-0.000485496
1.87532e-05
-0.000489551
1.95857e-05
-0.000493793
2.04767e-05
-0.000498236
2.14312e-05
-0.000502894
2.24504e-05
-0.000507783
2.35324e-05
-0.000512916
2.46732e-05
-0.000518305
2.58656e-05
-0.000523961