/*--------------------------------*- C++ -*----------------------------------*\
| =========                 |                                                 |
| \\      /  F ield         | OpenFOAM: The Open Source CFD Toolbox           |
|  \\    /   O peration     | Version:  2406                                  |
|   \\  /    A nd           | Website:  www.openfoam.com                      |
|    \\/     M anipulation  |                                                 |
\*---------------------------------------------------------------------------*/
FoamFile
{
    version     2.0;
    format      ascii;
    arch        "LSB;label=32;scalar=64";
    class       volScalarField;
    location    "500";
    object      T;
}
// * * * * * * * * * * * * * * * * * * * * * * * * * * * * * * * * * * * * * //

dimensions      [0 0 0 1 0 0 0];

internalField   nonuniform List<scalar> 
5619
(
299.994
299.98
299.964
299.939
299.907
299.867
299.819
299.763
299.7
299.629
299.552
299.471
299.386
299.299
299.21
299.121
299.032
298.944
298.857
298.771
298.688
298.607
298.529
298.453
298.379
298.307
298.238
298.171
298.106
298.042
297.981
297.922
297.865
297.809
297.756
297.704
297.654
297.605
297.558
297.512
297.467
297.422
297.379
297.336
297.292
297.247
297.198
297.145
297.088
297.03
296.974
296.921
296.876
296.843
296.805
296.709
296.514
296.341
296.238
296.186
296.129
295.907
295.583
295.411
295.352
295.25
294.944
294.665
294.559
294.388
294.16
293.985
293.869
293.773
293.673
293.578
293.495
293.421
293.354
293.293
293.24
293.197
293.168
293.155
293.151
293.15
293.15
293.15
293.15
293.15
293.15
293.15
293.15
293.15
293.15
293.15
293.15
293.15
293.15
293.15
293.15
293.15
293.15
293.15
293.15
293.15
293.15
293.15
293.15
293.15
293.15
293.15
293.15
293.15
293.15
293.15
293.15
293.15
293.15
293.15
293.15
293.15
293.15
293.15
293.15
293.15
293.15
293.15
293.15
293.15
293.15
293.15
293.15
293.15
293.15
293.15
293.15
293.15
293.15
293.15
293.15
293.15
293.15
293.15
293.15
293.15
293.15
293.15
293.15
293.15
293.15
293.15
293.15
293.15
293.15
293.15
293.15
293.15
293.15
293.15
293.15
293.15
293.15
293.15
293.15
293.15
293.15
293.15
293.15
293.15
293.15
293.15
293.15
293.15
293.15
293.15
293.15
293.15
293.15
293.15
293.15
293.15
293.15
293.15
293.15
293.15
293.15
299.996
299.984
299.969
299.948
299.919
299.882
299.837
299.784
299.724
299.656
299.583
299.504
299.421
299.336
299.249
299.161
299.073
298.985
298.899
298.815
298.732
298.651
298.573
298.498
298.424
298.353
298.285
298.218
298.154
298.091
298.031
297.972
297.916
297.861
297.808
297.758
297.708
297.661
297.615
297.569
297.525
297.482
297.439
297.397
297.354
297.31
297.263
297.213
297.158
297.101
297.043
296.985
296.931
296.88
296.81
296.698
296.554
296.417
296.306
296.21
296.073
295.88
295.68
295.517
295.386
295.222
295.022
294.835
294.684
294.534
294.377
294.233
294.108
293.993
293.881
293.774
293.673
293.577
293.487
293.403
293.328
293.262
293.21
293.173
293.157
293.151
293.15
293.15
293.15
293.15
293.15
293.15
293.15
293.15
293.15
293.15
293.15
293.15
293.15
293.15
293.15
293.15
293.15
293.15
293.15
293.15
293.15
293.15
293.15
293.15
293.15
293.15
293.15
293.15
293.15
293.15
293.15
293.15
293.15
293.15
293.15
293.15
293.15
293.15
293.15
293.15
293.15
293.15
293.15
293.15
293.15
293.15
293.15
293.15
293.15
293.15
293.15
293.15
293.15
293.15
293.15
293.15
293.15
293.15
293.15
293.15
293.15
293.15
293.15
293.15
293.15
293.15
293.15
293.15
293.15
293.15
293.15
293.15
293.15
293.15
293.15
293.15
293.15
293.15
293.15
293.15
293.15
293.15
293.15
293.15
293.15
293.15
293.15
293.15
293.15
293.15
293.15
293.15
293.15
293.15
293.15
293.15
293.15
293.15
293.15
293.15
293.15
299.996
299.986
299.972
299.952
299.925
299.889
299.846
299.795
299.736
299.671
299.599
299.522
299.441
299.356
299.27
299.184
299.097
299.01
298.925
298.841
298.759
298.68
298.602
298.528
298.455
298.385
298.317
298.252
298.188
298.127
298.067
298.01
297.955
297.901
297.85
297.8
297.752
297.706
297.661
297.617
297.574
297.531
297.49
297.448
297.406
297.363
297.317
297.268
297.215
297.159
297.1
297.04
296.98
296.915
296.834
296.726
296.602
296.48
296.366
296.249
296.106
295.943
295.781
295.631
295.487
295.332
295.17
295.015
294.871
294.731
294.593
294.46
294.335
294.215
294.097
293.982
293.869
293.759
293.652
293.55
293.453
293.364
293.286
293.222
293.178
293.158
293.152
293.15
293.15
293.15
293.15
293.15
293.15
293.15
293.15
293.15
293.15
293.15
293.15
293.15
293.15
293.15
293.15
293.15
293.15
293.15
293.15
293.15
293.15
293.15
293.15
293.15
293.15
293.15
293.15
293.15
293.15
293.15
293.15
293.15
293.15
293.15
293.15
293.15
293.15
293.15
293.15
293.15
293.15
293.15
293.15
293.15
293.15
293.15
293.15
293.15
293.15
293.15
293.15
293.15
293.15
293.15
293.15
293.15
293.15
293.15
293.15
293.15
293.15
293.15
293.15
293.15
293.15
293.15
293.15
293.15
293.15
293.15
293.15
293.15
293.15
293.15
293.15
293.15
293.15
293.15
293.15
293.15
293.15
293.15
293.15
293.15
293.15
293.15
293.15
293.15
293.15
293.15
293.15
293.15
293.15
293.15
293.15
293.15
293.15
293.15
293.15
299.997
299.986
299.973
299.953
299.926
299.891
299.849
299.798
299.741
299.676
299.605
299.529
299.449
299.366
299.281
299.195
299.109
299.024
298.94
298.858
298.777
298.699
298.623
298.55
298.478
298.41
298.343
298.279
298.217
298.157
298.099
298.043
297.989
297.937
297.887
297.839
297.793
297.748
297.705
297.662
297.621
297.58
297.539
297.499
297.457
297.415
297.37
297.322
297.271
297.216
297.157
297.096
297.032
296.96
296.875
296.774
296.664
296.553
296.441
296.322
296.191
296.052
295.915
295.781
295.648
295.512
295.376
295.244
295.116
294.99
294.865
294.743
294.622
294.503
294.385
294.265
294.145
294.025
293.903
293.783
293.663
293.548
293.438
293.34
293.257
293.196
293.166
293.154
293.151
293.15
293.15
293.15
293.15
293.15
293.15
293.15
293.15
293.15
293.15
293.15
293.15
293.15
293.15
293.15
293.15
293.15
293.15
293.15
293.15
293.15
293.15
293.15
293.15
293.15
293.15
293.15
293.15
293.15
293.15
293.15
293.15
293.15
293.15
293.15
293.15
293.15
293.15
293.15
293.15
293.15
293.15
293.15
293.15
293.15
293.15
293.15
293.15
293.15
293.15
293.15
293.15
293.15
293.15
293.15
293.15
293.15
293.15
293.15
293.15
293.15
293.15
293.15
293.15
293.15
293.15
293.15
293.15
293.15
293.15
293.15
293.15
293.15
293.15
293.15
293.15
293.15
293.15
293.15
293.15
293.15
293.15
293.15
293.15
293.15
293.15
293.15
293.15
293.15
293.15
293.15
293.15
293.15
293.15
293.15
293.15
293.15
293.15
299.996
299.986
299.972
299.952
299.925
299.89
299.847
299.796
299.739
299.674
299.604
299.528
299.449
299.367
299.283
299.199
299.115
299.031
298.949
298.868
298.79
298.713
298.639
298.568
298.499
298.432
298.367
298.305
298.245
298.187
298.131
298.077
298.026
297.976
297.928
297.882
297.838
297.795
297.754
297.713
297.674
297.635
297.596
297.557
297.517
297.476
297.432
297.386
297.336
297.283
297.226
297.166
297.101
297.028
296.946
296.855
296.759
296.66
296.558
296.452
296.341
296.227
296.115
296.004
295.893
295.781
295.671
295.562
295.455
295.347
295.239
295.129
295.017
294.902
294.784
294.662
294.536
294.406
294.272
294.134
293.994
293.853
293.714
293.579
293.454
293.343
293.253
293.192
293.164
293.154
293.151
293.15
293.15
293.15
293.15
293.15
293.15
293.15
293.15
293.15
293.15
293.15
293.15
293.15
293.15
293.15
293.15
293.15
293.15
293.15
293.15
293.15
293.15
293.15
293.15
293.15
293.15
293.15
293.15
293.15
293.15
293.15
293.15
293.15
293.15
293.15
293.15
293.15
293.15
293.15
293.15
293.15
293.15
293.15
293.15
293.15
293.15
293.15
293.15
293.15
293.15
293.15
293.15
293.15
293.15
293.15
293.15
293.15
293.15
293.15
293.15
293.15
293.15
293.15
293.15
293.15
293.15
293.15
293.15
293.15
293.15
293.15
293.15
293.15
293.15
293.15
293.15
293.15
293.15
293.15
293.15
293.15
293.15
293.15
293.15
293.15
293.15
293.15
293.15
293.15
293.15
293.15
293.15
293.15
293.15
293.15
293.15
299.995
299.984
299.97
299.949
299.921
299.885
299.841
299.79
299.732
299.667
299.597
299.522
299.443
299.363
299.281
299.198
299.116
299.035
298.955
298.877
298.801
298.727
298.655
298.586
298.52
298.456
298.394
298.334
298.277
298.221
298.168
298.117
298.068
298.021
297.976
297.933
297.892
297.852
297.813
297.776
297.739
297.703
297.666
297.63
297.592
297.553
297.512
297.469
297.423
297.374
297.321
297.265
297.205
297.139
297.067
296.991
296.912
296.832
296.75
296.666
296.581
296.496
296.413
296.33
296.248
296.165
296.082
295.996
295.909
295.819
295.725
295.627
295.523
295.415
295.3
295.179
295.051
294.916
294.775
294.627
294.473
294.314
294.151
293.987
293.826
293.67
293.525
293.396
293.289
293.212
293.173
293.157
293.152
293.15
293.15
293.15
293.15
293.15
293.15
293.15
293.15
293.15
293.15
293.15
293.15
293.15
293.15
293.15
293.15
293.15
293.15
293.15
293.15
293.15
293.15
293.15
293.15
293.15
293.15
293.15
293.15
293.15
293.15
293.15
293.15
293.15
293.15
293.15
293.15
293.15
293.15
293.15
293.15
293.15
293.15
293.15
293.15
293.15
293.15
293.15
293.15
293.15
293.15
293.15
293.15
293.15
293.15
293.15
293.15
293.15
293.15
293.15
293.15
293.15
293.15
293.15
293.15
293.15
293.15
293.15
293.15
293.15
293.15
293.15
293.15
293.15
293.15
293.15
293.15
293.15
293.15
293.15
293.15
293.15
293.15
293.15
293.15
293.15
293.15
293.15
293.15
293.15
293.15
293.15
293.15
293.15
293.15
299.994
299.982
299.967
299.944
299.915
299.878
299.833
299.781
299.722
299.657
299.587
299.513
299.436
299.357
299.277
299.197
299.117
299.039
298.962
298.887
298.814
298.744
298.676
298.61
298.547
298.486
298.427
298.371
298.317
298.265
298.215
298.168
298.122
298.079
298.037
297.998
297.96
297.924
297.889
297.855
297.823
297.79
297.758
297.725
297.692
297.658
297.622
297.584
297.545
297.503
297.46
297.413
297.364
297.313
297.259
297.204
297.149
297.093
297.038
296.983
296.929
296.875
296.821
296.765
296.708
296.649
296.588
296.523
296.453
296.38
296.3
296.215
296.124
296.025
295.918
295.804
295.681
295.55
295.409
295.26
295.103
294.938
294.766
294.588
294.406
294.223
294.04
293.862
293.693
293.538
293.402
293.292
293.216
293.177
293.161
293.154
293.151
293.15
293.15
293.15
293.15
293.15
293.15
293.15
293.15
293.15
293.15
293.15
293.15
293.15
293.15
293.15
293.15
293.15
293.15
293.15
293.15
293.15
293.15
293.15
293.15
293.15
293.15
293.15
293.15
293.15
293.15
293.15
293.15
293.15
293.15
293.15
293.15
293.15
293.15
293.15
293.15
293.15
293.15
293.15
293.15
293.15
293.15
293.15
293.15
293.15
293.15
293.15
293.15
293.15
293.15
293.15
293.15
293.15
293.15
293.15
293.15
293.15
293.15
293.15
293.15
293.15
293.15
293.15
293.15
293.15
293.15
293.15
293.15
293.15
293.15
293.15
293.15
293.15
293.15
293.15
293.15
293.15
293.15
293.15
293.15
293.15
293.15
293.15
293.15
293.15
293.15
299.992
299.979
299.963
299.939
299.908
299.87
299.824
299.771
299.712
299.647
299.578
299.505
299.429
299.353
299.276
299.199
299.122
299.047
298.975
298.904
298.835
298.768
298.704
298.643
298.584
298.527
298.473
298.421
298.371
298.323
298.277
298.234
298.193
298.154
298.116
298.081
298.048
298.017
297.987
297.958
297.93
297.903
297.877
297.851
297.824
297.798
297.77
297.742
297.714
297.685
297.655
297.625
297.595
297.564
297.534
297.505
297.477
297.448
297.42
297.392
297.363
297.333
297.302
297.268
297.232
297.193
297.15
297.102
297.05
296.992
296.928
296.858
296.781
296.696
296.604
296.504
296.394
296.276
296.149
296.012
295.866
295.71
295.546
295.373
295.194
295.008
294.816
294.621
294.425
294.23
294.04
293.857
293.686
293.532
293.4
293.298
293.228
293.191
293.173
293.164
293.158
293.154
293.152
293.151
293.151
293.15
293.15
293.15
293.15
293.15
293.15
293.15
293.15
293.15
293.15
293.15
293.15
293.15
293.15
293.15
293.15
293.15
293.15
293.15
293.15
293.15
293.15
293.15
293.15
293.15
293.15
293.15
293.15
293.15
293.15
293.15
293.15
293.15
293.15
293.15
293.15
293.15
293.15
293.15
293.15
293.15
293.15
293.15
293.15
293.15
293.15
293.15
293.15
293.15
293.15
293.15
293.15
293.15
293.15
293.15
293.15
293.15
293.15
293.15
293.15
293.15
293.15
293.15
293.15
293.15
293.15
293.15
293.15
293.15
293.15
293.15
293.15
293.15
293.15
293.15
293.15
293.15
293.15
293.15
293.15
293.15
293.15
299.991
299.976
299.959
299.934
299.903
299.863
299.817
299.764
299.705
299.641
299.573
299.502
299.429
299.356
299.282
299.208
299.136
299.066
298.998
298.931
298.867
298.806
298.747
298.69
298.636
298.584
298.534
298.487
298.441
298.398
298.358
298.319
298.283
298.249
298.217
298.187
298.159
298.133
298.109
298.086
298.065
298.046
298.027
298.01
297.993
297.978
297.962
297.947
297.933
297.921
297.91
297.9
297.891
297.884
297.877
297.87
297.864
297.858
297.852
297.844
297.836
297.825
297.812
297.797
297.778
297.755
297.728
297.697
297.661
297.619
297.572
297.519
297.46
297.395
297.322
297.242
297.154
297.059
296.955
296.843
296.722
296.592
296.454
296.307
296.151
295.988
295.817
295.64
295.457
295.269
295.077
294.883
294.687
294.493
294.302
294.117
293.941
293.778
293.631
293.507
293.402
293.32
293.263
293.225
293.198
293.178
293.165
293.157
293.153
293.151
293.15
293.15
293.15
293.15
293.15
293.15
293.15
293.15
293.15
293.15
293.15
293.15
293.15
293.15
293.15
293.15
293.15
293.15
293.15
293.15
293.15
293.15
293.15
293.15
293.15
293.15
293.15
293.15
293.15
293.15
293.15
293.15
293.15
293.15
293.15
293.15
293.15
293.15
293.15
293.15
293.15
293.15
293.15
293.15
293.15
293.15
293.15
293.15
293.15
293.15
293.15
293.15
293.15
293.15
293.15
293.15
293.15
293.15
293.15
293.15
293.15
293.15
293.15
293.15
293.15
293.15
293.15
293.15
293.15
293.15
293.15
293.15
293.15
293.15
293.15
293.15
293.15
299.989
299.974
299.956
299.931
299.899
299.86
299.814
299.761
299.704
299.642
299.576
299.508
299.438
299.369
299.299
299.23
299.163
299.098
299.035
298.973
298.915
298.859
298.805
298.753
298.704
298.658
298.613
298.571
298.531
298.493
298.458
298.424
298.394
298.365
298.339
298.314
298.293
298.273
298.256
298.241
298.227
298.216
298.207
298.2
298.195
298.193
298.192
298.192
298.191
298.192
298.201
298.208
298.218
298.229
298.241
298.253
298.266
298.278
298.289
298.299
298.308
298.313
298.315
298.316
298.312
298.305
298.295
298.28
298.261
298.238
298.21
298.176
298.138
298.094
298.045
297.991
297.93
297.864
297.791
297.712
297.626
297.533
297.434
297.328
297.214
297.094
296.968
296.834
296.695
296.55
296.4
296.246
296.088
295.927
295.763
295.598
295.431
295.264
295.098
294.932
294.76
294.575
294.379
294.176
293.975
293.783
293.605
293.447
293.318
293.234
293.192
293.167
293.156
293.151
293.15
293.15
293.15
293.15
293.15
293.15
293.15
293.15
293.15
293.15
293.15
293.15
293.15
293.15
293.15
293.15
293.15
293.15
293.15
293.15
293.15
293.15
293.15
293.15
293.15
293.15
293.15
293.15
293.15
293.15
293.15
293.15
293.15
293.15
293.15
293.15
293.15
293.15
293.15
293.15
293.15
293.15
293.15
293.15
293.15
293.15
293.15
293.15
293.15
293.15
293.15
293.15
293.15
293.15
293.15
293.15
293.15
293.15
293.15
293.15
293.15
293.15
293.15
293.15
293.15
293.15
293.15
293.15
293.15
293.15
293.15
293.15
293.15
299.989
299.974
299.956
299.931
299.9
299.861
299.817
299.766
299.711
299.652
299.589
299.525
299.46
299.394
299.33
299.266
299.204
299.145
299.087
299.031
298.978
298.928
298.879
298.834
298.79
298.749
298.71
298.673
298.638
298.606
298.576
298.548
298.523
298.5
298.48
298.462
298.446
298.433
298.423
298.415
298.409
298.407
298.405
298.406
298.411
298.417
298.427
298.438
298.452
298.468
298.488
298.51
298.533
298.558
298.583
298.609
298.635
298.661
298.686
298.71
298.733
298.753
298.772
298.788
298.801
298.811
298.819
298.823
298.824
298.822
298.814
298.803
298.788
298.769
298.745
298.718
298.687
298.651
298.611
298.567
298.518
298.466
298.41
298.349
298.285
298.218
298.146
298.072
297.994
297.913
297.83
297.744
297.657
297.569
297.479
297.389
297.299
297.209
297.119
297.029
296.932
296.818
296.681
296.514
296.313
296.073
295.792
295.469
295.102
294.697
294.267
293.858
293.516
293.297
293.202
293.166
293.154
293.151
293.15
293.15
293.15
293.15
293.15
293.15
293.15
293.15
293.15
293.15
293.15
293.15
293.15
293.15
293.15
293.15
293.15
293.15
293.15
293.15
293.15
293.15
293.15
293.15
293.15
293.15
293.15
293.15
293.15
293.15
293.15
293.15
293.15
293.15
293.15
293.15
293.15
293.15
293.15
293.15
293.15
293.15
293.15
293.15
293.15
293.15
293.15
293.15
293.15
293.15
293.15
293.15
293.15
293.15
293.15
293.15
293.15
293.15
293.15
293.15
293.15
293.15
293.15
293.15
293.15
293.15
293.15
293.15
293.15
299.989
299.975
299.957
299.934
299.904
299.868
299.826
299.779
299.727
299.672
299.614
299.554
299.493
299.433
299.374
299.316
299.259
299.205
299.153
299.103
299.056
299.011
298.968
298.927
298.889
298.853
298.82
298.788
298.759
298.733
298.708
298.686
298.666
298.649
298.634
298.622
298.612
298.605
298.6
298.598
298.596
298.598
298.603
298.611
298.622
298.636
298.653
298.672
298.694
298.719
298.746
298.775
298.806
298.838
298.871
298.905
298.94
298.975
299.01
299.044
299.079
299.112
299.144
299.175
299.205
299.232
299.257
299.28
299.301
299.319
299.335
299.348
299.358
299.365
299.37
299.373
299.373
299.367
299.357
299.346
299.331
299.315
299.297
299.277
299.256
299.234
299.212
299.189
299.167
299.146
299.125
299.107
299.091
299.077
299.068
299.069
299.076
299.085
299.097
299.114
299.135
299.156
299.17
299.162
299.099
298.99
298.827
298.6
298.299
297.916
297.446
296.886
296.239
295.52
294.755
294.024
293.494
293.25
293.179
293.156
293.151
293.15
293.15
293.15
293.15
293.15
293.15
293.15
293.15
293.15
293.15
293.15
293.15
293.15
293.15
293.15
293.15
293.15
293.15
293.15
293.15
293.15
293.15
293.15
293.15
293.15
293.15
293.15
293.15
293.15
293.15
293.15
293.15
293.15
293.15
293.15
293.15
293.15
293.15
293.15
293.15
293.15
293.15
293.15
293.15
293.15
293.15
293.15
293.15
293.15
293.15
293.15
293.15
293.15
293.15
293.15
293.15
293.15
293.15
293.15
293.15
293.15
293.15
293.15
293.15
293.15
293.15
299.99
299.977
299.961
299.94
299.913
299.88
299.842
299.799
299.751
299.7
299.647
299.593
299.537
299.482
299.428
299.376
299.325
299.276
299.229
299.184
299.142
299.102
299.065
299.029
298.996
298.966
298.937
298.911
298.887
298.865
298.846
298.829
298.815
298.803
298.793
298.786
298.78
298.777
298.776
298.774
298.775
298.781
298.791
298.803
298.818
298.835
298.855
298.878
298.903
298.93
298.959
298.99
299.023
299.057
299.093
299.129
299.167
299.205
299.244
299.284
299.324
299.364
299.404
299.444
299.485
299.525
299.566
299.605
299.645
299.683
299.721
299.758
299.794
299.828
299.861
299.892
299.92
299.947
299.97
299.992
300.012
300.031
300.048
300.064
300.079
300.093
300.108
300.122
300.137
300.154
300.173
300.196
300.225
300.26
300.303
300.354
300.416
300.488
300.573
300.67
300.785
300.916
301.052
301.185
301.304
301.401
301.465
301.496
301.467
301.315
301.066
300.703
300.205
299.562
298.775
297.845
296.794
295.663
294.521
293.67
293.289
293.183
293.156
293.151
293.15
293.15
293.15
293.15
293.15
293.15
293.15
293.15
293.15
293.15
293.15
293.15
293.15
293.15
293.15
293.15
293.15
293.15
293.15
293.15
293.15
293.15
293.15
293.15
293.15
293.15
293.15
293.15
293.15
293.15
293.15
293.15
293.15
293.15
293.15
293.15
293.15
293.15
293.15
293.15
293.15
293.15
293.15
293.15
293.15
293.15
293.15
293.15
293.15
293.15
293.15
293.15
293.15
293.15
293.15
293.15
293.15
293.15
293.15
293.15
293.15
293.15
293.15
299.992
299.98
299.967
299.948
299.924
299.895
299.861
299.823
299.78
299.735
299.687
299.637
299.587
299.537
299.488
299.441
299.395
299.351
299.309
299.269
299.232
299.197
299.164
299.133
299.105
299.079
299.055
299.033
299.014
298.997
298.982
298.97
298.96
298.952
298.947
298.942
298.94
298.938
298.938
298.937
298.94
298.949
298.96
298.974
298.99
299.008
299.028
299.05
299.074
299.1
299.128
299.157
299.188
299.221
299.254
299.289
299.325
299.361
299.398
299.436
299.475
299.514
299.554
299.595
299.637
299.679
299.723
299.768
299.814
299.862
299.912
299.964
300.019
300.077
300.137
300.2
300.266
300.334
300.403
300.473
300.541
300.606
300.669
300.729
300.788
300.845
300.9
300.954
301.007
301.057
301.107
301.157
301.21
301.266
301.329
301.399
301.48
301.573
301.679
301.802
301.948
302.118
302.306
302.505
302.708
302.909
303.103
303.283
303.444
303.578
303.676
303.727
303.703
303.46
303.043
302.416
301.556
300.479
299.198
297.747
296.204
294.685
293.673
293.267
293.171
293.153
293.15
293.15
293.15
293.15
293.15
293.15
293.15
293.15
293.15
293.15
293.15
293.15
293.15
293.15
293.15
293.15
293.15
293.15
293.15
293.15
293.15
293.15
293.15
293.15
293.15
293.15
293.15
293.15
293.15
293.15
293.15
293.15
293.15
293.15
293.15
293.15
293.15
293.15
293.15
293.15
293.15
293.15
293.15
293.15
293.15
293.15
293.15
293.15
293.15
293.15
293.15
293.15
293.15
293.15
293.15
293.15
293.15
293.15
293.15
293.15
293.15
299.993
299.984
299.973
299.957
299.937
299.912
299.882
299.849
299.812
299.771
299.728
299.684
299.639
299.594
299.549
299.506
299.465
299.426
299.388
299.352
299.319
299.288
299.259
299.232
299.208
299.185
299.165
299.148
299.133
299.12
299.109
299.101
299.094
299.089
299.086
299.084
299.083
299.082
299.082
299.082
299.086
299.095
299.107
299.12
299.135
299.152
299.17
299.19
299.212
299.235
299.26
299.286
299.314
299.342
299.371
299.402
299.433
299.465
299.497
299.53
299.564
299.598
299.632
299.668
299.704
299.741
299.779
299.819
299.862
299.907
299.956
300.01
300.068
300.132
300.203
300.281
300.367
300.461
300.564
300.676
300.797
300.927
301.064
301.205
301.347
301.485
301.618
301.746
301.871
301.991
302.104
302.21
302.309
302.401
302.491
302.58
302.672
302.769
302.875
302.993
303.129
303.284
303.45
303.619
303.789
303.958
304.129
304.307
304.498
304.702
304.918
305.142
305.363
305.565
305.713
305.777
305.645
305.135
304.308
303.14
301.648
299.889
297.95
295.994
294.278
293.455
293.202
293.156
293.15
293.15
293.15
293.15
293.15
293.15
293.15
293.15
293.15
293.15
293.15
293.15
293.15
293.15
293.15
293.15
293.15
293.15
293.15
293.15
293.15
293.15
293.15
293.15
293.15
293.15
293.15
293.15
293.15
293.15
293.15
293.15
293.15
293.15
293.15
293.15
293.15
293.15
293.15
293.15
293.15
293.15
293.15
293.15
293.15
293.15
293.15
293.15
293.15
293.15
293.15
293.15
293.15
293.15
293.15
293.15
293.15
293.15
293.15
299.995
299.988
299.978
299.965
299.949
299.928
299.903
299.874
299.841
299.806
299.768
299.728
299.688
299.647
299.607
299.568
299.53
299.495
299.461
299.429
299.399
299.371
299.345
299.321
299.3
299.281
299.264
299.25
299.238
299.228
299.22
299.215
299.21
299.208
299.206
299.206
299.205
299.204
299.204
299.204
299.208
299.217
299.228
299.24
299.254
299.269
299.285
299.303
299.322
299.342
299.364
299.386
299.409
299.433
299.458
299.484
299.51
299.537
299.564
299.591
299.619
299.647
299.675
299.704
299.733
299.762
299.793
299.825
299.859
299.895
299.935
299.978
300.028
300.083
300.147
300.222
300.308
300.409
300.525
300.658
300.809
300.978
301.166
301.372
301.596
301.838
302.096
302.36
302.623
302.876
303.118
303.349
303.562
303.754
303.923
304.072
304.203
304.322
304.433
304.542
304.657
304.774
304.88
304.968
305.036
305.088
305.134
305.187
305.262
305.376
305.541
305.763
306.042
306.371
306.741
307.127
307.484
307.736
307.83
307.576
306.775
305.491
303.715
301.557
299.17
296.81
294.744
293.602
293.22
293.155
293.15
293.15
293.15
293.15
293.15
293.15
293.15
293.15
293.15
293.15
293.15
293.15
293.15
293.15
293.15
293.15
293.15
293.15
293.15
293.15
293.15
293.15
293.15
293.15
293.15
293.15
293.15
293.15
293.15
293.15
293.15
293.15
293.15
293.15
293.15
293.15
293.15
293.15
293.15
293.15
293.15
293.15
293.15
293.15
293.15
293.15
293.15
293.15
293.15
293.15
293.15
293.15
293.15
293.15
293.15
293.15
293.15
299.997
299.991
299.983
299.973
299.959
299.942
299.921
299.896
299.868
299.837
299.803
299.768
299.731
299.694
299.658
299.622
299.588
299.555
299.524
299.495
299.468
299.442
299.419
299.398
299.379
299.363
299.348
299.336
299.327
299.321
299.315
299.313
299.308
299.306
299.305
299.304
299.304
299.304
299.304
299.304
299.307
299.315
299.325
299.336
299.348
299.361
299.376
299.391
299.408
299.425
299.444
299.463
299.482
299.503
299.524
299.545
299.567
299.589
299.612
299.634
299.657
299.68
299.703
299.726
299.749
299.773
299.796
299.821
299.847
299.874
299.904
299.936
299.972
300.013
300.061
300.117
300.184
300.265
300.363
300.481
300.624
300.797
301.004
301.25
301.535
301.858
302.218
302.612
303.038
303.492
303.959
304.414
304.844
305.244
305.6
305.901
306.145
306.336
306.484
306.597
306.687
306.743
306.758
306.715
306.615
306.476
306.318
306.164
306.04
305.983
306.001
306.112
306.324
306.639
307.051
307.552
308.119
308.712
309.281
309.731
309.939
309.778
308.818
307.16
304.833
302.049
299.158
296.497
294.364
293.401
293.172
293.151
293.15
293.15
293.15
293.15
293.15
293.15
293.15
293.15
293.15
293.15
293.15
293.15
293.15
293.15
293.15
293.15
293.15
293.15
293.15
293.15
293.15
293.15
293.15
293.15
293.15
293.15
293.15
293.15
293.15
293.15
293.15
293.15
293.15
293.15
293.15
293.15
293.15
293.15
293.15
293.15
293.15
293.15
293.15
293.15
293.15
293.15
293.15
293.15
293.15
293.15
293.15
293.15
293.15
293.15
293.15
299.998
299.993
299.987
299.979
299.968
299.953
299.936
299.914
299.89
299.863
299.833
299.801
299.767
299.734
299.7
299.667
299.636
299.606
299.577
299.55
299.525
299.502
299.481
299.461
299.444
299.429
299.417
299.407
299.399
299.397
299.391
299.39
299.386
299.386
299.384
299.383
299.383
299.383
299.382
299.382
299.385
299.391
299.4
299.41
299.421
299.432
299.445
299.459
299.473
299.488
299.504
299.52
299.537
299.555
299.573
299.591
299.609
299.628
299.647
299.666
299.685
299.704
299.723
299.742
299.761
299.78
299.799
299.818
299.838
299.859
299.881
299.904
299.93
299.959
299.992
300.031
300.078
300.136
300.206
300.295
300.406
300.546
300.722
300.942
301.216
301.553
301.962
302.451
303.015
303.647
304.339
305.084
305.864
306.627
307.322
307.932
308.426
308.784
309.019
309.152
309.212
309.18
309.032
308.785
308.456
308.072
307.664
307.265
306.91
306.63
306.457
306.413
306.51
306.749
307.13
307.642
308.275
309.008
309.801
310.599
311.323
311.853
312.049
311.572
309.954
307.317
303.944
300.42
297.03
294.423
293.37
293.164
293.151
293.15
293.15
293.15
293.15
293.15
293.15
293.15
293.15
293.15
293.15
293.15
293.15
293.15
293.15
293.15
293.15
293.15
293.15
293.15
293.15
293.15
293.15
293.15
293.15
293.15
293.15
293.15
293.15
293.15
293.15
293.15
293.15
293.15
293.15
293.15
293.15
293.15
293.15
293.15
293.15
293.15
293.15
293.15
293.15
293.15
293.15
293.15
293.15
293.15
293.15
293.15
293.15
293.15
293.15
299.999
299.995
299.99
299.984
299.974
299.962
299.947
299.929
299.908
299.883
299.856
299.827
299.797
299.766
299.734
299.704
299.674
299.646
299.619
299.594
299.571
299.549
299.53
299.512
299.496
299.483
299.471
299.462
299.456
299.455
299.45
299.449
299.445
299.446
299.444
299.444
299.443
299.443
299.443
299.443
299.444
299.449
299.456
299.465
299.475
299.485
299.497
299.509
299.521
299.535
299.548
299.563
299.578
299.593
299.608
299.624
299.64
299.656
299.672
299.688
299.705
299.721
299.737
299.753
299.769
299.785
299.8
299.816
299.832
299.849
299.866
299.884
299.903
299.924
299.947
299.974
300.006
300.045
300.093
300.153
300.231
300.331
300.461
300.63
300.85
301.134
301.5
301.964
302.548
303.268
304.136
305.14
306.251
307.444
308.681
309.84
310.791
311.497
311.901
312.062
312.053
311.841
311.464
310.953
310.348
309.687
309.011
308.362
307.777
307.29
306.932
306.731
306.698
306.846
307.168
307.658
308.304
309.091
309.99
310.966
311.967
312.925
313.725
314.132
313.852
311.966
308.546
304.169
299.651
295.612
293.666
293.191
293.151
293.15
293.15
293.15
293.15
293.15
293.15
293.15
293.15
293.15
293.15
293.15
293.15
293.15
293.15
293.15
293.15
293.15
293.15
293.15
293.15
293.15
293.15
293.15
293.15
293.15
293.15
293.15
293.15
293.15
293.15
293.15
293.15
293.15
293.15
293.15
293.15
293.15
293.15
293.15
293.15
293.15
293.15
293.15
293.15
293.15
293.15
293.15
293.15
293.15
293.15
293.15
293.15
293.15
293.15
299.999
299.997
299.993
299.987
299.979
299.969
299.956
299.94
299.921
299.899
299.874
299.847
299.819
299.79
299.76
299.732
299.704
299.677
299.652
299.628
299.606
299.586
299.567
299.55
299.536
299.523
299.513
299.505
299.498
299.499
299.493
299.493
299.49
299.49
299.488
299.489
299.488
299.488
299.488
299.487
299.487
299.491
299.498
299.505
299.514
299.523
299.534
299.544
299.556
299.568
299.58
299.593
299.606
299.619
299.633
299.647
299.661
299.675
299.689
299.704
299.718
299.732
299.746
299.76
299.774
299.787
299.801
299.815
299.828
299.842
299.856
299.87
299.885
299.901
299.918
299.937
299.96
299.986
300.018
300.059
300.11
300.178
300.267
300.385
300.543
300.756
301.039
301.416
301.913
302.564
303.404
304.471
305.805
307.39
309.141
310.967
312.757
314.138
314.857
315.068
314.907
314.446
313.783
312.981
312.091
311.161
310.236
309.36
308.572
307.907
307.393
307.056
306.914
306.972
307.232
307.69
308.34
309.166
310.14
311.231
312.398
313.586
314.723
315.688
316.188
315.699
312.792
307.481
301.354
296.121
293.739
293.194
293.151
293.15
293.15
293.15
293.15
293.15
293.15
293.15
293.15
293.15
293.15
293.15
293.15
293.15
293.15
293.15
293.15
293.15
293.15
293.15
293.15
293.15
293.15
293.15
293.15
293.15
293.15
293.15
293.15
293.15
293.15
293.15
293.15
293.15
293.15
293.15
293.15
293.15
293.15
293.15
293.15
293.15
293.15
293.15
293.15
293.15
293.15
293.15
293.15
293.15
293.15
293.15
293.15
293.15
293.15
300
299.997
299.994
299.989
299.982
299.973
299.962
299.947
299.93
299.909
299.886
299.861
299.834
299.807
299.779
299.752
299.725
299.7
299.675
299.653
299.632
299.612
299.594
299.579
299.565
299.553
299.543
299.536
299.529
299.53
299.525
299.525
299.522
299.522
299.521
299.52
299.52
299.519
299.52
299.518
299.519
299.522
299.527
299.534
299.542
299.55
299.559
299.569
299.579
299.59
299.602
299.613
299.625
299.637
299.65
299.662
299.675
299.688
299.701
299.713
299.726
299.739
299.751
299.764
299.776
299.788
299.8
299.812
299.824
299.836
299.848
299.86
299.872
299.885
299.898
299.913
299.93
299.948
299.971
299.998
300.033
300.078
300.137
300.217
300.325
300.473
300.675
300.952
301.33
301.841
302.528
303.447
304.662
306.251
308.311
310.816
313.49
315.959
317.503
317.855
317.478
316.737
315.798
314.733
313.597
312.438
311.304
310.24
309.285
308.473
307.834
307.389
307.159
307.147
307.362
307.797
308.449