/*--------------------------------*- C++ -*----------------------------------*\
| =========                 |                                                 |
| \\      /  F ield         | OpenFOAM: The Open Source CFD Toolbox           |
|  \\    /   O peration     | Version:  2406                                  |
|   \\  /    A nd           | Website:  www.openfoam.com                      |
|    \\/     M anipulation  |                                                 |
\*---------------------------------------------------------------------------*/
FoamFile
{
    version     2.0;
    format      ascii;
    arch        "LSB;label=32;scalar=64";
    class       volVectorField;
    location    "500";
    object      U;
}
// * * * * * * * * * * * * * * * * * * * * * * * * * * * * * * * * * * * * * //

dimensions      [0 1 -1 0 0 0 0];

internalField   nonuniform List<vector> 
5619
(
(2.03992 -0.000475196 0)
(2.09715 -0.000706144 0)
(2.14459 -0.000724254 0)
(2.19366 -0.000720892 0)
(2.23863 -0.000691527 0)
(2.27963 -0.000647351 0)
(2.31588 -0.000596216 0)
(2.34765 -0.000547242 0)
(2.37556 -0.000509028 0)
(2.40062 -0.000487981 0)
(2.42397 -0.000487278 0)
(2.4467 -0.000506704 0)
(2.46967 -0.000543433 0)
(2.49348 -0.000593381 0)
(2.51846 -0.000652446 0)
(2.54473 -0.000717511 0)
(2.5723 -0.000786732 0)
(2.60111 -0.000859552 0)
(2.6311 -0.000936437 0)
(2.66223 -0.00101844 0)
(2.6945 -0.00110705 0)
(2.72795 -0.00120377 0)
(2.76262 -0.00131017 0)
(2.7986 -0.00142768 0)
(2.836 -0.00155751 0)
(2.87491 -0.00170085 0)
(2.91545 -0.00185858 0)
(2.95773 -0.00203147 0)
(3.00185 -0.00222007 0)
(3.04789 -0.00242467 0)
(3.09594 -0.00264524 0)
(3.14606 -0.00288154 0)
(3.19827 -0.00313291 0)
(3.2526 -0.0033984 0)
(3.30902 -0.00367674 0)
(3.3675 -0.00396601 0)
(3.42793 -0.00426386 0)
(3.49022 -0.00456737 0)
(3.55418 -0.00487293 0)
(3.61962 -0.00517625 0)
(3.68627 -0.00547215 0)
(3.75384 -0.0057544 0)
(3.82196 -0.00601592 0)
(3.89023 -0.00624859 0)
(3.95819 -0.00644329 0)
(4.02533 -0.00659001 0)
(4.09111 -0.00667774 0)
(4.15493 -0.00669484 0)
(4.21618 -0.00662937 0)
(4.27422 -0.00646898 0)
(4.3284 -0.0062015 0)
(4.37807 -0.00581482 0)
(4.4226 -0.00529761 0)
(4.46137 -0.00463927 0)
(4.4938 -0.00383008 0)
(4.51935 -0.00286141 0)
(4.53752 -0.001725 0)
(4.54786 -0.000412265 0)
(4.54998 0.0010949 0)
(4.54344 0.00285555 0)
(4.52751 0.00490608 0)
(4.50165 0.00723572 0)
(4.46544 0.00985173 0)
(4.41851 0.01277 0)
(4.3605 0.01601 0)
(4.2911 0.0195947 0)
(4.21 0.0235516 0)
(4.11688 0.0279134 0)
(4.01143 0.0327199 0)
(3.89331 0.03802 0)
(3.76213 0.0438732 0)
(3.61746 0.0503522 0)
(3.4588 0.0575436 0)
(3.28555 0.0655461 0)
(3.09709 0.0744617 0)
(2.89272 0.0843726 0)
(2.67184 0.0952859 0)
(2.43412 0.107018 0)
(2.17998 0.118956 0)
(1.91152 0.129597 0)
(1.63412 0.135707 0)
(1.35948 0.131021 0)
(1.10949 0.1052 0)
(0.918213 0.0479399 0)
(0.830451 -0.0273667 0)
(0.882232 -0.0620529 0)
(0.983241 -0.0484906 0)
(1.06129 -0.0305586 0)
(1.11746 -0.0213217 0)
(1.16068 -0.0165758 0)
(1.19597 -0.0138734 0)
(1.22548 -0.012064 0)
(1.25044 -0.0106027 0)
(1.27163 -0.00932971 0)
(1.28959 -0.00819043 0)
(1.30477 -0.00716668 0)
(1.31754 -0.00624559 0)
(1.32823 -0.00541827 0)
(1.33707 -0.00467512 0)
(1.34442 -0.00400524 0)
(1.35066 -0.00340716 0)
(1.35609 -0.00283089 0)
(1.36048 -0.00226492 0)
(1.36363 -0.00170342 0)
(1.36529 -0.00114123 0)
(1.3652 -0.000559376 0)
(1.36308 7.48989e-05 0)
(1.35854 0.000741363 0)
(1.35143 0.00139377 0)
(1.34166 0.00201391 0)
(1.3293 0.0025889 0)
(1.3145 0.00310894 0)
(1.29756 0.00356639 0)
(1.27885 0.00395667 0)
(1.25882 0.00427854 0)
(1.23793 0.00453321 0)
(1.21667 0.00472352 0)
(1.19549 0.00485357 0)
(1.17479 0.00492876 0)
(1.1549 0.00495549 0)
(1.1361 0.00494032 0)
(1.11857 0.00488972 0)
(1.10242 0.00481036 0)
(1.08772 0.00470945 0)
(1.07446 0.00459438 0)
(1.06261 0.00447247 0)
(1.05212 0.00435295 0)
(1.04272 0.00424938 0)
(1.03412 0.00415704 0)
(1.02564 0.0040637 0)
(1.01729 0.00397326 0)
(1.00903 0.00388558 0)
(1.00082 0.00380074 0)
(0.99261 0.00371851 0)
(0.984374 0.00363848 0)
(0.976074 0.00356006 0)
(0.967679 0.0034826 0)
(0.959158 0.00340541 0)
(0.950486 0.00332793 0)
(0.941636 0.00324978 0)
(0.93259 0.00317051 0)
(0.923329 0.00308947 0)
(0.913838 0.00300584 0)
(0.904106 0.00291896 0)
(0.894128 0.00282848 0)
(0.883906 0.00273424 0)
(0.873444 0.00263606 0)
(0.862756 0.00253356 0)
(0.85186 0.00242632 0)
(0.840785 0.00231411 0)
(0.829565 0.00219701 0)
(0.818245 0.00207531 0)
(0.806879 0.00194941 0)
(0.79553 0.00181978 0)
(0.784269 0.00168705 0)
(0.773173 0.00155194 0)
(0.762328 0.00141539 0)
(0.751821 0.00127853 0)
(0.741745 0.00114265 0)
(0.73219 0.00100914 0)
(0.723245 0.000879436 0)
(0.714993 0.000754963 0)
(0.707507 0.000637104 0)
(0.700846 0.000527045 0)
(0.695057 0.00042572 0)
(0.690171 0.000333865 0)
(0.6862 0.000252011 0)
(0.683145 0.000180367 0)
(0.68099 0.000118671 0)
(0.679709 6.61295e-05 0)
(0.679273 2.14773e-05 0)
(0.679665 -1.20973e-05 0)
(0.680738 -3.4762e-05 0)
(0.682459 -5.11507e-05 0)
(0.684825 -6.2211e-05 0)
(0.687864 -6.86525e-05 0)
(0.69166 -7.09476e-05 0)
(0.696379 -6.8848e-05 0)
(0.70232 -5.97897e-05 0)
(0.70999 -3.42621e-05 0)
(0.720192 3.66187e-05 0)
(0.734126 0.000233084 0)
(0.75344 0.000768864 0)
(0.780207 0.00221549 0)
(0.816922 0.00618178 0)
(0.86643 0.0176118 0)
(0.926668 0.0544988 0)
(2.25549 -0.00133554 0)
(2.31263 -0.00217738 0)
(2.36019 -0.00219691 0)
(2.40959 -0.00220649 0)
(2.45477 -0.00211454 0)
(2.49562 -0.00197751 0)
(2.53118 -0.00181297 0)
(2.56161 -0.00165289 0)
(2.58754 -0.0015247 0)
(2.61009 -0.00145001 0)
(2.63056 -0.00143969 0)
(2.6502 -0.00149361 0)
(2.67004 -0.00160297 0)
(2.69078 -0.00175453 0)
(2.71283 -0.00193482 0)
(2.73635 -0.00213315 0)
(2.76136 -0.00234302 0)
(2.78779 -0.00256194 0)
(2.81556 -0.00279077 0)
(2.84462 -0.00303239 0)
(2.87494 -0.00329095 0)
(2.90655 -0.00357104 0)
(2.93949 -0.0038772 0)
(2.97385 -0.00421392 0)
(3.00972 -0.00458518 0)
(3.04721 -0.00499479 0)
(3.08642 -0.00544612 0)
(3.12748 -0.00594214 0)
(3.17047 -0.00648546 0)
(3.2155 -0.00707805 0)
(3.26265 -0.00772123 0)
(3.31197 -0.00841552 0)
(3.3635 -0.00916054 0)
(3.41726 -0.00995466 0)
(3.47322 -0.0107951 0)
(3.53133 -0.0116773 0)
(3.59149 -0.0125948 0)
(3.65357 -0.0135394 0)
(3.71739 -0.0145003 0)
(3.78272 -0.0154642 0)
(3.8493 -0.0164151 0)
(3.91679 -0.0173337 0)
(3.98482 -0.018198 0)
(4.05297 -0.0189826 0)
(4.12076 -0.0196594 0)
(4.18769 -0.0201975 0)
(4.2532 -0.0205636 0)
(4.31671 -0.0207227 0)
(4.37762 -0.020639 0)
(4.43529 -0.0202758 0)
(4.48911 -0.0195973 0)
(4.53845 -0.0185684 0)
(4.58271 -0.017156 0)
(4.6213 -0.0153293 0)
(4.65367 -0.01306 0)
(4.67929 -0.010322 0)
(4.69769 -0.00708971 0)
(4.70842 -0.00333602 0)
(4.71105 0.000982155 0)
(4.70515 0.00597426 0)
(4.69041 0.0117161 0)
(4.66642 0.018203 0)
(4.63285 0.0254513 0)
(4.58942 0.0334925 0)
(4.53587 0.042364 0)
(4.47196 0.0521086 0)
(4.39749 0.0627755 0)
(4.31225 0.0744209 0)
(4.21607 0.0871105 0)
(4.10875 0.100921 0)
(3.9901 0.115942 0)
(3.85993 0.132278 0)
(3.71804 0.15004 0)
(3.56425 0.169344 0)
(3.3984 0.190278 0)
(3.22046 0.212854 0)
(3.03056 0.236898 0)
(2.82924 0.261849 0)
(2.61767 0.28638 0)
(2.39804 0.307746 0)
(2.17406 0.320736 0)
(1.95132 0.316299 0)
(1.73699 0.280776 0)
(1.53835 0.199259 0)
(1.36362 0.0715197 0)
(1.23162 -0.0577996 0)
(1.19746 -0.110361 0)
(1.24082 -0.095764 0)
(1.29415 -0.0751224 0)
(1.34078 -0.0617996 0)
(1.37986 -0.0519768 0)
(1.41253 -0.0440737 0)
(1.43975 -0.0375356 0)
(1.4623 -0.0319371 0)
(1.48086 -0.0270317 0)
(1.49604 -0.022722 0)
(1.50834 -0.0189387 0)
(1.51818 -0.0156245 0)
(1.52591 -0.0127219 0)
(1.53191 -0.0101721 0)
(1.53659 -0.00793167 0)
(1.54017 -0.00581344 0)
(1.54245 -0.00377618 0)
(1.5432 -0.00179408 0)
(1.54221 0.000154906 0)
(1.5392 0.00209887 0)
(1.53392 0.00404816 0)
(1.52627 0.00596438 0)
(1.51614 0.0077967 0)
(1.50352 0.00951019 0)
(1.4885 0.0110748 0)
(1.47128 0.0124671 0)
(1.45214 0.0136706 0)
(1.43149 0.0146769 0)
(1.40975 0.0154855 0)
(1.38739 0.0161034 0)
(1.36487 0.0165424 0)
(1.34263 0.0168184 0)
(1.32104 0.0169497 0)
(1.3004 0.0169558 0)
(1.28095 0.016856 0)
(1.26285 0.016669 0)
(1.2462 0.0164133 0)
(1.23103 0.0161065 0)
(1.21732 0.0157654 0)
(1.20504 0.0154054 0)
(1.19413 0.0150433 0)
(1.18433 0.0146988 0)
(1.17537 0.0143731 0)
(1.16653 0.0140457 0)
(1.15783 0.0137201 0)
(1.14923 0.0133973 0)
(1.14068 0.0130779 0)
(1.13215 0.0127621 0)
(1.12361 0.0124496 0)
(1.11501 0.0121398 0)
(1.10633 0.0118317 0)
(1.09754 0.0115242 0)
(1.08862 0.0112162 0)
(1.07954 0.0109067 0)
(1.07028 0.0105943 0)
(1.06083 0.0102773 0)
(1.05116 0.00995419 0)
(1.04127 0.00962337 0)
(1.03115 0.00928379 0)
(1.02081 0.00893452 0)
(1.01025 0.00857463 0)
(0.999485 0.00820313 0)
(0.988533 0.00781928 0)
(0.977421 0.00742282 0)
(0.966186 0.00701411 0)
(0.954874 0.00659395 0)
(0.943539 0.00616351 0)
(0.932244 0.00572445 0)
(0.92106 0.00527896 0)
(0.910067 0.00482975 0)
(0.89935 0.00437998 0)
(0.888999 0.00393318 0)
(0.879106 0.00349329 0)
(0.869765 0.00306455 0)
(0.861067 0.00265129 0)
(0.853097 0.00225773 0)
(0.845931 0.00188765 0)
(0.839634 0.00154423 0)
(0.834258 0.00122992 0)
(0.829838 0.000946419 0)
(0.826398 0.000694524 0)
(0.823946 0.000473957 0)
(0.822478 0.000283162 0)
(0.821981 0.000119588 0)
(0.822442 -1.77972e-05 0)
(0.823757 -0.000126894 0)
(0.825929 -0.000213938 0)
(0.828961 -0.000289942 0)
(0.832883 -0.000361091 0)
(0.837762 -0.000434236 0)
(0.843703 -0.000517799 0)
(0.850858 -0.000622879 0)
(0.859425 -0.000765233 0)
(0.86963 -0.000969397 0)
(0.881701 -0.00127804 0)
(0.895811 -0.00177467 0)
(0.912009 -0.00263977 0)
(0.930143 -0.00428668 0)
(0.949845 -0.00766951 0)
(0.970489 -0.0149681 0)
(0.988465 -0.0293062 0)
(2.32452 -0.00241253 0)
(2.37996 -0.00405143 0)
(2.42624 -0.00406569 0)
(2.47459 -0.00409992 0)
(2.51889 -0.00391815 0)
(2.55891 -0.00364438 0)
(2.59358 -0.00330725 0)
(2.62297 -0.00297218 0)
(2.64768 -0.00269439 0)
(2.66884 -0.00251897 0)
(2.68777 -0.00246941 0)
(2.70577 -0.00254713 0)
(2.72393 -0.00273561 0)
(2.74298 -0.00300884 0)
(2.76336 -0.00333978 0)
(2.78526 -0.00370658 0)
(2.80867 -0.00409562 0)
(2.83353 -0.00450129 0)
(2.85976 -0.0049247 0)
(2.88729 -0.00537121 0)
(2.91608 -0.00584865 0)
(2.94616 -0.00636593 0)
(2.97756 -0.00693179 0)
(3.01035 -0.00755494 0)
(3.04463 -0.00824317 0)
(3.0805 -0.00900384 0)
(3.11807 -0.00984358 0)
(3.15744 -0.0107682 0)
(3.19872 -0.0117827 0)
(3.24198 -0.012891 0)
(3.28732 -0.0140959 0)
(3.33479 -0.0153983 0)
(3.38443 -0.0167977 0)
(3.43623 -0.0182907 0)
(3.4902 -0.019872 0)
(3.54626 -0.0215326 0)
(3.60433 -0.0232601 0)
(3.66428 -0.0250386 0)
(3.72592 -0.0268473 0)
(3.78904 -0.0286608 0)
(3.85336 -0.0304486 0)
(3.91858 -0.0321745 0)
(3.98433 -0.0337968 0)
(4.0502 -0.0352686 0)
(4.11574 -0.0365371 0)
(4.18046 -0.0375452 0)
(4.24383 -0.0382313 0)
(4.3053 -0.0385311 0)
(4.3643 -0.0383783 0)
(4.42024 -0.0377058 0)
(4.47251 -0.0364471 0)
(4.52054 -0.0345381 0)
(4.56375 -0.0319169 0)
(4.60159 -0.0285261 0)
(4.63353 -0.0243114 0)
(4.6591 -0.0192218 0)
(4.67784 -0.0132064 0)
(4.68934 -0.0062116 0)
(4.69325 0.00182641 0)
(4.6892 0.0110162 0)
(4.67697 0.0214734 0)
(4.65625 0.0332437 0)
(4.62675 0.0463624 0)
(4.58827 0.0608812 0)
(4.54061 0.0768591 0)
(4.48361 0.0943619 0)
(4.41714 0.113462 0)
(4.3411 0.13424 0)
(4.2554 0.156786 0)
(4.15998 0.181201 0)
(4.05481 0.207593 0)
(3.93989 0.236075 0)
(3.81526 0.266754 0)
(3.68103 0.299701 0)
(3.5374 0.334903 0)
(3.38475 0.372172 0)
(3.22365 0.410986 0)
(3.05503 0.450236 0)
(2.8802 0.487821 0)
(2.70095 0.520073 0)
(2.51936 0.541029 0)
(2.33741 0.541749 0)
(2.15594 0.510307 0)
(1.97365 0.433878 0)
(1.7886 0.305071 0)
(1.6071 0.132923 0)
(1.45574 -0.0405771 0)
(1.3856 -0.136105 0)
(1.39607 -0.140243 0)
(1.42931 -0.11941 0)
(1.46333 -0.101557 0)
(1.49261 -0.0867425 0)
(1.51721 -0.0735054 0)
(1.53789 -0.061842 0)
(1.55502 -0.0516378 0)
(1.56897 -0.0427608 0)
(1.58019 -0.0350404 0)
(1.58907 -0.0283312 0)
(1.59594 -0.0225042 0)
(1.60116 -0.0174375 0)
(1.60513 -0.0130193 0)
(1.60795 -0.00888189 0)
(1.60947 -0.00494341 0)
(1.60946 -0.00114201 0)
(1.60772 0.00257465 0)
(1.60399 0.00623508 0)
(1.59811 0.00982028 0)
(1.58994 0.0132877 0)
(1.57937 0.0165944 0)
(1.56642 0.0196847 0)
(1.55116 0.0225043 0)
(1.53382 0.0250074 0)
(1.51469 0.0271619 0)
(1.49415 0.0289511 0)
(1.47264 0.0303739 0)
(1.45061 0.0314427 0)
(1.4285 0.0321809 0)
(1.40673 0.0326198 0)
(1.38566 0.032796 0)
(1.36556 0.0327476 0)
(1.34667 0.0325129 0)
(1.32913 0.0321292 0)
(1.31301 0.0316319 0)
(1.29835 0.0310535 0)
(1.28512 0.0304231 0)
(1.27328 0.0297656 0)
(1.26278 0.0291019 0)
(1.25335 0.0284497 0)
(1.24474 0.0278193 0)
(1.23626 0.027186 0)
(1.22792 0.0265528 0)
(1.21968 0.0259219 0)
(1.21151 0.0252944 0)
(1.20336 0.024671 0)
(1.1952 0.0240518 0)
(1.18701 0.023436 0)
(1.17874 0.0228229 0)
(1.17038 0.0222109 0)
(1.16189 0.0215984 0)
(1.15327 0.0209833 0)
(1.14448 0.020363 0)
(1.13551 0.0197351 0)
(1.12635 0.0190967 0)
(1.11699 0.0184455 0)
(1.10743 0.0177792 0)
(1.09766 0.0170954 0)
(1.08769 0.0163922 0)
(1.07754 0.0156677 0)
(1.06723 0.0149207 0)
(1.05678 0.0141509 0)
(1.04624 0.0133589 0)
(1.03563 0.0125457 0)
(1.02502 0.0117136 0)
(1.01447 0.0108655 0)
(1.00405 0.0100056 0)
(0.993828 0.00913885 0)
(0.983891 0.00827136 0)
(0.974325 0.00740989 0)
(0.965218 0.00656195 0)
(0.956661 0.00573558 0)
(0.94874 0.00493896 0)
(0.941537 0.00417987 0)
(0.935127 0.00346532 0)
(0.929571 0.0028013 0)
(0.92492 0.00219259 0)
(0.921209 0.00164247 0)
(0.918459 0.0011525 0)
(0.916675 0.000722307 0)
(0.91585 0.000349642 0)
(0.915961 3.1551e-05 0)
(0.91698 -0.000229304 0)
(0.918799 -0.000438368 0)
(0.921425 -0.000610841 0)
(0.924821 -0.000756049 0)
(0.928954 -0.000881392 0)
(0.933792 -0.000993087 0)
(0.939291 -0.00109626 0)
(0.945389 -0.00119437 0)
(0.951991 -0.0012879 0)
(0.958957 -0.00137131 0)
(0.966099 -0.00142635 0)
(0.973186 -0.00140861 0)
(0.979974 -0.00122391 0)
(0.986221 -0.000695809 0)
(0.991736 0.000445702 0)
(0.996402 0.00209064 0)
(0.998422 0.000152514 0)
(2.35105 -0.00376596 0)
(2.40423 -0.00643816 0)
(2.44871 -0.00644389 0)
(2.49535 -0.00652144 0)
(2.53816 -0.00622901 0)
(2.57682 -0.00578218 0)
(2.61024 -0.00522212 0)
(2.63846 -0.00465876 0)
(2.66204 -0.00418427 0)
(2.68208 -0.00387525 0)
(2.69989 -0.0037724 0)
(2.71675 -0.00387958 0)
(2.73373 -0.00417033 0)
(2.75158 -0.00460184 0)
(2.77073 -0.00512913 0)
(2.79135 -0.00571548 0)
(2.81345 -0.00633762 0)
(2.83696 -0.00698563 0)
(2.86179 -0.00766073 0)
(2.88788 -0.0083713 0)
(2.91519 -0.00912986 0)
(2.94373 -0.00995071 0)
(2.97353 -0.010848 0)
(3.00467 -0.0118358 0)
(3.03723 -0.0129267 0)
(3.07131 -0.0141324 0)
(3.10702 -0.0154637 0)
(3.14444 -0.0169299 0)
(3.18369 -0.018539 0)
(3.22485 -0.0202973 0)
(3.26798 -0.0222092 0)
(3.31315 -0.0242763 0)
(3.36039 -0.0264974 0)
(3.40971 -0.0288676 0)
(3.46109 -0.0313777 0)
(3.51448 -0.0340136 0)
(3.56979 -0.0367554 0)
(3.62689 -0.0395774 0)
(3.68562 -0.0424467 0)
(3.74576 -0.045323 0)
(3.80707 -0.0481579 0)
(3.86925 -0.0508947 0)
(3.93195 -0.0534681 0)
(3.99479 -0.0558044 0)
(4.05735 -0.0578216 0)
(4.11915 -0.0594308 0)
(4.17971 -0.0605366 0)
(4.2385 -0.061039 0)
(4.29498 -0.0608351 0)
(4.34859 -0.0598212 0)
(4.39877 -0.0578941 0)
(4.44496 -0.0549544 0)
(4.48661 -0.050907 0)
(4.52322 -0.045663 0)
(4.55428 -0.0391396 0)
(4.57934 -0.03126 0)
(4.59799 -0.0219501 0)
(4.60985 -0.0111337 0)
(4.61463 0.00127667 0)
(4.61201 0.0154024 0)
(4.60183 0.0313921 0)
(4.58387 0.049333 0)
(4.55793 0.0692821 0)
(4.52386 0.0913095 0)
(4.48154 0.115491 0)
(4.43091 0.141906 0)
(4.3719 0.170639 0)
(4.30453 0.20178 0)
(4.22882 0.235418 0)
(4.14486 0.271649 0)
(4.05277 0.31056 0)
(3.95273 0.352222 0)
(3.845 0.396668 0)
(3.72993 0.443851 0)
(3.60795 0.493581 0)
(3.47968 0.545414 0)
(3.34584 0.598493 0)
(3.20731 0.651303 0)
(3.06511 0.701337 0)
(2.92019 0.744684 0)
(2.77328 0.775588 0)
(2.62442 0.786158 0)
(2.4725 0.76657 0)
(2.3149 0.706295 0)
(2.14823 0.596837 0)
(1.97113 0.435758 0)
(1.79008 0.232339 0)
(1.62644 0.0202656 0)
(1.51765 -0.129595 0)
(1.48716 -0.169862 0)
(1.4984 -0.154458 0)
(1.52163 -0.131168 0)
(1.54479 -0.111945 0)
(1.5645 -0.095157 0)
(1.58098 -0.0796385 0)
(1.59467 -0.0657439 0)
(1.60597 -0.0535389 0)
(1.61509 -0.04293 0)
(1.62226 -0.0337458 0)
(1.62778 -0.0257819 0)
(1.63207 -0.0188257 0)
(1.63521 -0.0123123 0)
(1.63707 -0.00609965 0)
(1.63742 -8.36567e-05 0)
(1.63606 0.00580338 0)
(1.63275 0.0115839 0)
(1.62729 0.0172286 0)
(1.61952 0.0226767 0)
(1.60934 0.0278469 0)
(1.59676 0.0326517 0)
(1.58189 0.0370091 0)
(1.56494 0.0408517 0)
(1.54623 0.0441331 0)
(1.52613 0.0468315 0)
(1.50508 0.0489488 0)
(1.48354 0.0505083 0)
(1.46194 0.0515505 0)
(1.44069 0.0521277 0)
(1.42015 0.0522991 0)
(1.40059 0.0521265 0)
(1.38223 0.0516711 0)
(1.36521 0.0509919 0)
(1.34962 0.0501438 0)
(1.33546 0.0491765 0)
(1.32271 0.0481342 0)
(1.31134 0.0470546 0)
(1.30129 0.0459685 0)
(1.29231 0.0449002 0)
(1.28412 0.0438678 0)
(1.27607 0.0428327 0)
(1.2682 0.0417999 0)
(1.26043 0.0407728 0)
(1.25275 0.0397533 0)
(1.24512 0.0387426 0)
(1.23749 0.0377405 0)
(1.22984 0.0367462 0)
(1.22214 0.0357581 0)
(1.21437 0.0347737 0)
(1.2065 0.0337903 0)
(1.1985 0.0328043 0)
(1.19036 0.0318118 0)
(1.18207 0.0308087 0)
(1.17361 0.0297908 0)
(1.16497 0.0287541 0)
(1.15615 0.0276948 0)
(1.14716 0.0266093 0)
(1.13799 0.0254942 0)
(1.12867 0.0243471 0)
(1.11921 0.0231663 0)
(1.10965 0.0219511 0)
(1.1 0.0207021 0)
(1.09033 0.0194214 0)
(1.08066 0.0181124 0)
(1.07107 0.0167798 0)
(1.06161 0.0154302 0)
(1.05235 0.0140713 0)
(1.04337 0.0127127 0)
(1.03473 0.0113649 0)
(1.02652 0.0100399 0)
(1.01882 0.00875021 0)
(1.01168 0.00750834 0)
(1.00518 0.00632642 0)
(0.999376 0.00521553 0)
(0.994302 0.00418529 0)
(0.98999 0.00324345 0)
(0.986451 0.00239543 0)
(0.983682 0.00164393 0)
(0.98166 0.00098874 0)
(0.980349 0.000426841 0)
(0.979694 -4.63732e-05 0)
(0.97963 -0.000430884 0)
(0.980129 -0.000737068 0)
(0.981108 -0.000983697 0)
(0.982489 -0.00118277 0)
(0.984192 -0.0013455 0)
(0.986139 -0.00148212 0)
(0.988249 -0.00160251 0)
(0.990447 -0.00171672 0)
(0.992655 -0.00183607 0)
(0.994802 -0.0019748 0)
(0.996815 -0.00215217 0)
(0.998627 -0.00239432 0)
(1.00017 -0.00273328 0)
(1.00136 -0.00319115 0)
(1.00217 -0.00368575 0)
(1.00262 -0.00388168 0)
(1.00123 -0.00420158 0)
(2.35858 -0.00542307 0)
(2.40873 -0.00936429 0)
(2.45065 -0.00936582 0)
(2.49473 -0.00950189 0)
(2.53515 -0.00907315 0)
(2.57163 -0.00841027 0)
(2.60309 -0.00756988 0)
(2.62957 -0.00671837 0)
(2.65162 -0.00599472 0)
(2.6703 -0.00551542 0)
(2.68687 -0.00534278 0)
(2.70254 -0.00548355 0)
(2.71835 -0.0058986 0)
(2.73498 -0.00652391 0)
(2.75285 -0.00729189 0)
(2.77211 -0.00814718 0)
(2.79276 -0.00905446 0)
(2.81473 -0.0099984 0)
(2.83794 -0.0109804 0)
(2.86232 -0.0120125 0)
(2.88784 -0.0131131 0)
(2.9145 -0.0143033 0)
(2.94234 -0.015604 0)
(2.97143 -0.0170355 0)
(3.00185 -0.0186166 0)
(3.03369 -0.0203644 0)
(3.06705 -0.0222946 0)
(3.10202 -0.0244208 0)
(3.1387 -0.0267548 0)
(3.17716 -0.0293057 0)
(3.21749 -0.0320797 0)
(3.25972 -0.0350793 0)
(3.3039 -0.0383028 0)
(3.35004 -0.0417427 0)
(3.39811 -0.0453858 0)
(3.44808 -0.0492115 0)
(3.49987 -0.053191 0)
(3.55335 -0.057287 0)
(3.60839 -0.0614517 0)
(3.66479 -0.0656269 0)
(3.72231 -0.069743 0)
(3.78069 -0.0737181 0)
(3.8396 -0.0774581 0)
(3.89869 -0.0808574 0)
(3.95756 -0.083798 0)
(4.01577 -0.0861522 0)
(4.07287 -0.087783 0)
(4.12835 -0.088547 0)
(4.1817 -0.0882963 0)
(4.2324 -0.086882 0)
(4.27991 -0.0841563 0)
(4.32372 -0.0799767 0)
(4.36329 -0.0742071 0)
(4.39815 -0.0667213 0)
(4.42782 -0.0574027 0)
(4.45189 -0.0461452 0)
(4.46998 -0.0328501 0)
(4.48174 -0.017422 0)
(4.48694 0.000239501 0)
(4.4853 0.0202508 0)
(4.47673 0.0427803 0)
(4.46112 0.0679561 0)
(4.43834 0.0958583 0)
(4.40831 0.126568 0)
(4.37101 0.160162 0)
(4.32645 0.196718 0)
(4.27468 0.236304 0)
(4.2158 0.278988 0)
(4.14997 0.324822 0)
(4.07739 0.373845 0)
(3.99834 0.426066 0)
(3.91313 0.481449 0)
(3.82217 0.53988 0)
(3.72593 0.601125 0)
(3.62498 0.664767 0)
(3.51995 0.730104 0)
(3.41154 0.796023 0)
(3.30046 0.860826 0)
(3.18736 0.922009 0)
(3.07269 0.976022 0)
(2.95652 1.01804 0)
(2.83827 1.04185 0)
(2.71648 1.03994 0)
(2.58869 1.00406 0)
(2.4517 0.926298 0)
(2.30237 0.800768 0)
(2.13923 0.625885 0)
(1.96582 0.407836 0)
(1.7963 0.167464 0)
(1.65544 -0.0472146 0)
(1.57087 -0.168729 0)
(1.545 -0.187995 0)
(1.54952 -0.167039 0)
(1.56585 -0.140361 0)
(1.58336 -0.117182 0)
(1.59846 -0.0976787 0)
(1.61094 -0.0803365 0)
(1.62102 -0.0647739 0)
(1.62911 -0.050992 0)
(1.63558 -0.0388538 0)
(1.64087 -0.0281347 0)
(1.64504 -0.0181195 0)
(1.64791 -0.00863226 0)
(1.64921 0.000474771 0)
(1.64868 0.00929691 0)
(1.64609 0.0178876 0)
(1.64123 0.0262294 0)
(1.63397 0.0342477 0)
(1.62423 0.0418346 0)
(1.61205 0.0488681 0)
(1.59755 0.055231 0)
(1.58095 0.0608261 0)
(1.56259 0.0655873 0)
(1.54283 0.0694848 0)
(1.5221 0.0725238 0)
(1.50087 0.0747405 0)
(1.47955 0.0761946 0)
(1.45856 0.0769629 0)
(1.43824 0.0771326 0)
(1.41887 0.0767961 0)
(1.40068 0.0760451 0)
(1.3838 0.0749668 0)
(1.36832 0.0736411 0)
(1.35426 0.0721398 0)
(1.34161 0.070526 0)
(1.33032 0.0688538 0)
(1.32036 0.067168 0)
(1.31146 0.0655052 0)
(1.30337 0.0638923 0)
(1.29545 0.0622768 0)
(1.28772 0.0606703 0)
(1.28013 0.0590797 0)
(1.27265 0.0575095 0)
(1.26524 0.0559618 0)
(1.25787 0.054437 0)
(1.2505 0.0529336 0)
(1.24311 0.0514488 0)
(1.23566 0.0499783 0)
(1.22814 0.0485168 0)
(1.22052 0.0470584 0)
(1.21279 0.0455964 0)
(1.20491 0.044124 0)
(1.19689 0.0426342 0)
(1.18872 0.0411205 0)
(1.18038 0.0395766 0)
(1.17189 0.0379967 0)
(1.16325 0.0363762 0)
(1.15447 0.0347114 0)
(1.14557 0.0330001 0)
(1.13657 0.0312415 0)
(1.12751 0.0294371 0)
(1.11842 0.0275899 0)
(1.10935 0.0257055 0)
(1.10035 0.0237914 0)
(1.09147 0.0218574 0)
(1.08277 0.0199153 0)
(1.07432 0.0179791 0)
(1.06618 0.0160643 0)
(1.0584 0.014188 0)
(1.05106 0.0123678 0)
(1.04421 0.0106215 0)
(1.03789 0.00896582 0)
(1.03214 0.00741618 0)
(1.027 0.00598578 0)
(1.02248 0.00468504 0)
(1.01857 0.003521 0)
(1.01527 0.00249687 0)
(1.01255 0.00161178 0)
(1.01037 0.0008609 0)
(1.00868 0.000236123 0)
(1.00743 -0.000271172 0)
(1.00659 -0.000671838 0)
(1.00608 -0.000983252 0)
(1.00584 -0.00122289 0)
(1.0058 -0.00140559 0)
(1.0059 -0.00154469 0)
(1.00609 -0.00165191 0)
(1.00632 -0.00173735 0)
(1.00655 -0.00180936 0)
(1.00672 -0.00187445 0)
(1.00681 -0.001937 0)
(1.00676 -0.00199907 0)
(1.00653 -0.0020629 0)
(1.00605 -0.00214006 0)
(1.0053 -0.00224538 0)
(1.00433 -0.00245293 0)
(1.0019 -0.00352962 0)
(2.35291 -0.00738806 0)
(2.39912 -0.01281 0)
(2.43756 -0.0128117 0)
(2.47807 -0.0130147 0)
(2.5151 -0.0124199 0)
(2.54846 -0.0114958 0)
(2.57713 -0.0103186 0)
(2.60118 -0.00912266 0)
(2.62116 -0.0081031 0)
(2.63806 -0.00742339 0)
(2.65305 -0.00717049 0)
(2.66727 -0.00735335 0)
(2.68164 -0.00791678 0)
(2.6968 -0.00877108 0)
(2.7131 -0.00982177 0)
(2.73066 -0.0109916 0)
(2.74949 -0.0122314 0)
(2.76951 -0.0135197 0)
(2.79064 -0.0148583 0)
(2.81282 -0.016264 0)
(2.83603 -0.017762 0)
(2.86026 -0.0193814 0)
(2.88555 -0.021151 0)
(2.91198 -0.023099 0)
(2.9396 -0.0252509 0)
(2.96852 -0.0276305 0)
(2.99881 -0.0302591 0)
(3.03058 -0.0331554 0)
(3.0639 -0.0363357 0)
(3.09887 -0.0398123 0)
(3.13553 -0.0435942 0)
(3.17395 -0.0476847 0)
(3.21417 -0.0520819 0)
(3.2562 -0.0567759 0)
(3.30003 -0.061749 0)
(3.34564 -0.0669738 0)
(3.39295 -0.0724114 0)
(3.44187 -0.0780113 0)
(3.49227 -0.0837092 0)
(3.544 -0.0894261 0)
(3.59683 -0.0950672 0)
(3.65053 -0.100522 0)
(3.70481 -0.105661 0)
(3.75934 -0.110342 0)
(3.81375 -0.114403 0)
(3.86766 -0.117671 0)
(3.92061 -0.119958 0)
(3.97216 -0.121069 0)
(4.02181 -0.120803 0)
(4.06908 -0.118957 0)
(4.11346 -0.115329 0)
(4.15445 -0.109726 0)
(4.19157 -0.101966 0)
(4.22436 -0.0918786 0)
(4.25238 -0.0793112 0)
(4.27525 -0.0641273 0)
(4.29261 -0.0462067 0)
(4.30418 -0.0254415 0)
(4.30974 -0.00173343 0)
(4.30912 0.0250061 0)
(4.30227 0.0549424 0)
(4.28917 0.0882371 0)
(4.26978 0.124985 0)
(4.24411 0.165262 0)
(4.2122 0.209126 0)
(4.17416 0.256617 0)
(4.13012 0.307759 0)
(4.08029 0.362551 0)
(4.02492 0.420965 0)
(3.96431 0.482934 0)
(3.89884 0.548339 0)
(3.82891 0.616992 0)
(3.755 0.6886 0)
(3.67762 0.762732 0)
(3.59734 0.838765 0)
(3.51473 0.915811 0)
(3.43037 0.992633 0)
(3.34477 1.06753 0)
(3.25835 1.13823 0)
(3.17127 1.20174 0)
(3.08339 1.25427 0)
(2.99409 1.29116 0)
(2.90216 1.30699 0)
(2.8057 1.29581 0)
(2.70222 1.25158 0)
(2.58883 1.16896 0)
(2.46274 1.04417 0)
(2.32205 0.876146 0)
(2.1673 0.667843 0)
(2.00465 0.428345 0)
(1.84938 0.1794 0)
(1.7211 -0.0356306 0)
(1.63669 -0.161675 0)
(1.59706 -0.190947 0)
(1.58785 -0.173035 0)
(1.59432 -0.144896 0)
(1.60646 -0.117653 0)
(1.61833 -0.0944317 0)
(1.62826 -0.075074 0)
(1.63617 -0.0583989 0)
(1.64254 -0.0435506 0)
(1.64751 -0.0294491 0)
(1.65102 -0.0158288 0)
(1.65289 -0.00253375 0)
(1.65288 0.0104781 0)
(1.65072 0.0231746 0)
(1.6462 0.0354603 0)
(1.63917 0.0471875 0)
(1.62958 0.0581867 0)
(1.61749 0.0682915 0)
(1.60308 0.077358 0)
(1.58662 0.0852775 0)
(1.56845 0.0919832 0)
(1.54896 0.0974508 0)
(1.52854 0.101698 0)
(1.50762 0.10478 0)
(1.4866 0.106791 0)
(1.46586 0.107846 0)
(1.44574 0.108074 0)
(1.42652 0.107603 0)
(1.40842 0.106559 0)
(1.39158 0.105058 0)
(1.37609 0.103208 0)
(1.36199 0.101102 0)
(1.34927 0.0988229 0)
(1.33789 0.096441 0)
(1.32781 0.0940148 0)
(1.31882 0.091593 0)
(1.31063 0.0892094 0)
(1.30261 0.0868053 0)
(1.29479 0.0844084 0)
(1.28713 0.0820353 0)
(1.2796 0.0796972 0)
(1.27215 0.0774012 0)
(1.26476 0.0751507 0)
(1.2574 0.0729455 0)
(1.25003 0.0707822 0)
(1.24264 0.0686549 0)
(1.23519 0.0665555 0)
(1.22766 0.0644744 0)
(1.22003 0.0624011 0)
(1.21229 0.0603246 0)
(1.20442 0.0582337 0)
(1.19642 0.0561177 0)
(1.18827 0.0539669 0)
(1.17999 0.0517726 0)
(1.17157 0.0495275 0)
(1.16303 0.0472264 0)
(1.15438 0.0448662 0)
(1.14565 0.0424461 0)
(1.13687 0.0399681 0)
(1.12807 0.0374371 0)
(1.1193 0.0348611 0)
(1.1106 0.0322508 0)
(1.10201 0.0296201 0)
(1.09361 0.0269857 0)
(1.08544 0.0243667 0)
(1.07755 0.0217843 0)
(1.07001 0.0192612 0)
(1.06287 0.016821 0)
(1.05618 0.0144869 0)
(1.04997 0.0122807 0)
(1.04428 0.0102222 0)
(1.03914 0.0083281 0)
(1.03454 0.00661099 0)
(1.0305 0.00507909 0)
(1.02699 0.00373556 0)
(1.024 0.00257833 0)
(1.02148 0.00160038 0)
(1.0194 0.000790371 0)
(1.0177 0.000133173 0)
(1.01633 -0.000387243 0)
(1.01525 -0.000789719 0)
(1.01438 -0.00109647 0)
(1.01369 -0.00132755 0)
(1.01311 -0.0015011 0)
(1.01259 -0.00163346 0)
(1.01211 -0.00173927 0)
(1.01161 -0.00183167 0)
(1.01107 -0.00192245 0)
(1.01045 -0.00202169 0)
(1.00971 -0.00213614 0)
(1.0088 -0.00226641 0)
(1.00769 -0.00240277 0)
(1.00634 -0.00249541 0)
(1.00478 -0.0025365 0)
(1.00202 -0.00326436 0)
(2.33482 -0.0096185 0)
(2.37604 -0.0166699 0)
(2.41001 -0.016675 0)
(2.4459 -0.0169444 0)
(2.47857 -0.0161525 0)
(2.50789 -0.0149251 0)
(2.53298 -0.0133621 0)
(2.55395 -0.011776 0)
(2.57129 -0.0104253 0)
(2.58594 -0.00952519 0)
(2.59894 -0.00918846 0)
(2.61131 -0.00942442 0)
(2.62386 -0.0101583 0)
(2.63711 -0.0112706 0)
(2.65138 -0.0126366 0)
(2.66675 -0.0141551 0)
(2.68322 -0.0157616 0)
(2.70072 -0.0174287 0)
(2.71916 -0.0191589 0)
(2.7385 -0.0209746 0)
(2.75871 -0.022909 0)
(2.77979 -0.0250003 0)
(2.80179 -0.0272862 0)
(2.82476 -0.0298036 0)
(2.84877 -0.032586 0)
(2.8739 -0.0356645 0)
(2.90023 -0.0390671 0)
(2.92786 -0.0428184 0)
(2.95687 -0.0469398 0)
(2.98732 -0.0514482 0)
(3.0193 -0.0563557 0)
(3.05285 -0.0616677 0)
(3.08802 -0.0673825 0)
(3.12483 -0.0734889 0)
(3.1633 -0.0799652 0)
(3.20342 -0.086777 0)
(3.24513 -0.0938757 0)
(3.28837 -0.101197 0)
(3.33305 -0.108658 0)
(3.37903 -0.116158 0)
(3.42614 -0.123572 0)
(3.47418 -0.130758 0)
(3.52289 -0.137548 0)
(3.57201 -0.143754 0)
(3.6212 -0.149164 0)
(3.6701 -0.153551 0)
(3.71833 -0.15667 0)
(3.76546 -0.158262 0)
(3.81106 -0.158065 0)
(3.85466 -0.155811 0)
(3.8958 -0.151238 0)
(3.93402 -0.144094 0)
(3.96888 -0.134142 0)
(3.99993 -0.121164 0)
(4.02679 -0.10497 0)
(4.04909 -0.0853958 0)
(4.06653 -0.062307 0)
(4.07886 -0.035599 0)
(4.08589 -0.00520086 0)
(4.08754 0.0289118 0)
(4.08377 0.0668718 0)
(4.07468 0.108864 0)
(4.06029 0.154987 0)
(4.04066 0.205289 0)
(4.01591 0.25978 0)
(3.98617 0.318432 0)
(3.95167 0.381178 0)
(3.91265 0.447913 0)
(3.86941 0.518481 0)
(3.82231 0.592673 0)
(3.77172 0.670211 0)
(3.71809 0.750734 0)
(3.66187 0.833772 0)
(3.60354 0.918721 0)
(3.54357 1.00481 0)
(3.48244 1.09105 0)
(3.42056 1.17621 0)
(3.35829 1.25871 0)
(3.29585 1.33663 0)
(3.23328 1.4076 0)
(3.17039 1.46879 0)
(3.10668 1.51689 0)
(3.04126 1.54814 0)
(2.97285 1.55849 0)
(2.89978 1.54374 0)
(2.82001 1.49992 0)
(2.73138 1.42363 0)
(2.63175 1.31254 0)
(2.51944 1.16591 0)
(2.39363 0.985002 0)
(2.25545 0.773576 0)
(2.10999 0.53899 0)
(1.96854 0.296456 0)
(1.8453 0.0746345 0)
(1.75132 -0.0856828 0)
(1.68966 -0.159791 0)
(1.65648 -0.166504 0)
(1.6437 -0.145052 0)
(1.64273 -0.117348 0)
(1.64738 -0.0899537 0)
(1.65346 -0.0654245 0)
(1.65894 -0.0431391 0)
(1.66288 -0.0227202 0)
(1.66464 -0.00354957 0)
(1.6639 0.0147815 0)
(1.66046 0.0324418 0)
(1.65424 0.0493756 0)
(1.64525 0.0653799 0)
(1.63361 0.0802257 0)
(1.61953 0.0937014 0)
(1.60332 0.105646 0)
(1.58537 0.115969 0)
(1.5661 0.124651 0)
(1.54592 0.131731 0)
(1.52524 0.137288 0)
(1.50439 0.141414 0)
(1.48367 0.1442 0)
(1.46335 0.145742 0)
(1.44365 0.146167 0)
(1.42481 0.145636 0)
(1.40702 0.144326 0)
(1.39042 0.142403 0)
(1.37512 0.140011 0)
(1.36116 0.137269 0)
(1.34853 0.134276 0)
(1.33721 0.131116 0)
(1.32717 0.127857 0)
(1.31819 0.124553 0)
(1.30998 0.121243 0)
(1.30195 0.117862 0)
(1.29411 0.114464 0)
(1.28642 0.11108 0)
(1.27886 0.107736 0)
(1.27138 0.104448 0)
(1.26397 0.101227 0)
(1.25659 0.0980783 0)
(1.24922 0.0949995 0)
(1.24182 0.0919854 0)
(1.23439 0.089026 0)
(1.22688 0.0861088 0)
(1.2193 0.0832189 0)
(1.21162 0.0803405 0)
(1.20382 0.0774575 0)
(1.19591 0.0745543 0)
(1.18788 0.0716164 0)
(1.17972 0.0686311 0)
(1.17145 0.065588 0)
(1.16308 0.0624793 0)
(1.15463 0.0593006 0)
(1.14611 0.0560507 0)
(1.13755 0.0527325 0)
(1.129 0.0493528 0)
(1.12048 0.0459223 0)
(1.11205 0.0424561 0)
(1.10374 0.0389729 0)
(1.09562 0.035495 0)
(1.08774 0.0320479 0)
(1.08014 0.0286594 0)
(1.07287 0.0253591 0)
(1.06599 0.0221771 0)
(1.05954 0.0191426 0)
(1.05355 0.0162832 0)
(1.04806 0.0136231 0)
(1.04307 0.0111826 0)
(1.03859 0.00897665 0)
(1.03463 0.00701413 0)