/*--------------------------------*- C++ -*----------------------------------*\
| =========                 |                                                 |
| \\      /  F ield         | OpenFOAM: The Open Source CFD Toolbox           |
|  \\    /   O peration     | Version:  2406                                  |
|   \\  /    A nd           | Website:  www.openfoam.com                      |
|    \\/     M anipulation  |                                                 |
\*---------------------------------------------------------------------------*/
FoamFile
{
    version     2.0;
    format      ascii;
    arch        "LSB;label=32;scalar=64";
    class       surfaceScalarField;
    location    "0.3";
    object      phi;
}
// * * * * * * * * * * * * * * * * * * * * * * * * * * * * * * * * * * * * * //

dimensions      [0 3 -1 0 0 0 0];

oriented        oriented;

internalField   nonuniform List<scalar> 
4335
(
4.0998e-05
6.26096e-11
4.0998e-05
5.24641e-11
4.09979e-05
3.84913e-11
4.09979e-05
2.8046e-11
4.09979e-05
2.63332e-11
4.09978e-05
2.16832e-11
4.09978e-05
1.76849e-11
4.09978e-05
-6.69418e-13
4.09978e-05
4.53152e-12
4.09978e-05
1.92844e-11
4.09978e-05
-2.47753e-13
4.09978e-05
4.29741e-12
4.09978e-05
4.58634e-12
4.09978e-05
-2.27481e-12
4.09978e-05
1.71829e-12
4.09978e-05
1.01227e-11
4.09978e-05
7.75715e-12
4.09978e-05
1.24281e-12
4.09978e-05
1.47313e-11
4.09978e-05
2.67495e-11
4.09978e-05
2.23297e-11
4.09978e-05
1.77786e-11
4.09978e-05
1.06896e-11
4.09977e-05
-3.5149e-14
4.09977e-05
-4.76399e-12
4.09977e-05
-2.2592e-12
4.09977e-05
5.48536e-12
4.09977e-05
1.28376e-11
4.09977e-05
1.31319e-11
4.09977e-05
6.04627e-12
4.09977e-05
-2.92099e-12
4.09976e-05
-9.00625e-12
4.09976e-05
-9.58524e-12
4.09976e-05
-6.48462e-12
4.09976e-05
-5.88206e-12
4.09976e-05
-6.45451e-12
4.09977e-05
-6.39207e-12
4.09977e-05
-1.22081e-11
4.09977e-05
-2.1077e-11
4.09977e-05
-2.07049e-11
4.09977e-05
-1.14238e-11
4.09977e-05
-3.65848e-12
4.09977e-05
-6.16647e-13
4.09977e-05
-2.09942e-12
4.09977e-05
-4.54754e-12
4.09977e-05
-1.82396e-12
4.09977e-05
5.96805e-12
4.09977e-05
1.24774e-11
4.09977e-05
1.55211e-11
4.09977e-05
1.33231e-11
4.09977e-05
4.31649e-12
4.09977e-05
-6.33781e-12
4.09977e-05
-1.12285e-11
4.09977e-05
-9.53528e-12
4.09977e-05
-4.23099e-12
4.09977e-05
2.38232e-12
4.09977e-05
8.31376e-12
4.09977e-05
9.87073e-12
4.09977e-05
5.65189e-12
4.09977e-05
-1.40661e-12
4.09977e-05
-2.11459e-12
4.09977e-05
7.20048e-12
4.09977e-05
1.90245e-11
4.09977e-05
2.24091e-11
4.09976e-05
1.6271e-11
4.09976e-05
6.44999e-12
4.09976e-05
1.54273e-12
4.09976e-05
4.36942e-12
4.09976e-05
8.42643e-12
4.09976e-05
6.96379e-12
4.09976e-05
1.69496e-12
4.09976e-05
-2.49594e-13
4.09976e-05
2.05521e-12
4.09975e-05
6.91037e-12
4.09975e-05
1.32857e-11
4.09975e-05
1.73116e-11
4.09975e-05
1.43992e-11
4.09975e-05
7.29986e-12
4.09975e-05
4.13197e-12
4.09975e-05
7.34576e-12
4.09975e-05
1.15051e-11
4.09975e-05
1.11232e-11
4.09975e-05
6.79254e-12
4.09975e-05
1.50861e-12
4.09974e-05
-2.5125e-12
4.09974e-05
-3.27873e-12
4.09974e-05
-1.57328e-12
4.09974e-05
-2.52219e-12
4.09974e-05
-8.14629e-12
4.09974e-05
-1.25737e-11
4.09974e-05
-1.02328e-11
4.09975e-05
-5.78247e-12
4.09975e-05
-5.4833e-12
4.09975e-05
-7.18397e-12
4.09975e-05
-5.55036e-12
4.09974e-05
-9.2864e-14
4.09974e-05
5.45022e-12
4.09974e-05
7.68304e-12
4.09974e-05
4.39932e-12
4.09974e-05
-1.80422e-12
4.09974e-05
-3.9759e-12
4.09974e-05
-1.25242e-13
4.09974e-05
4.41452e-12
4.09974e-05
4.94752e-12
4.09974e-05
2.96349e-12
4.09974e-05
9.32661e-13
4.09974e-05
-1.35225e-14
4.09974e-05
2.15628e-12
4.09974e-05
7.42775e-12
4.09974e-05
1.0751e-11
4.09974e-05
9.79335e-12
4.09974e-05
8.11831e-12
4.09973e-05
6.73393e-12
4.09973e-05
3.70596e-12
4.09973e-05
-4.54571e-13
4.09973e-05
-3.11818e-12
4.09973e-05
-4.03299e-12
4.09973e-05
-4.20738e-12
4.09973e-05
-4.72697e-12
4.09973e-05
-5.4414e-12
4.09973e-05
-4.76515e-12
4.09973e-05
-1.76509e-12
4.09974e-05
9.9775e-13
4.09974e-05
3.58371e-12
4.09974e-05
8.30701e-12
4.09974e-05
1.36476e-11
4.09974e-05
1.45629e-11
4.09974e-05
9.49842e-12
4.09974e-05
2.73801e-12
4.09974e-05
-4.53102e-12
4.09974e-05
-1.00341e-11
4.09974e-05
-8.65394e-12
4.09974e-05
-6.1836e-12
4.09974e-05
-6.73967e-12
4.09974e-05
-2.59133e-12
4.09974e-05
6.99493e-12
4.09974e-05
1.2424e-11
4.09974e-05
1.06269e-11
4.09974e-05
8.07362e-12
4.09974e-05
6.13091e-12
4.09974e-05
4.69561e-12
4.09974e-05
-7.58646e-14
4.09974e-05
-1.1425e-11
4.09974e-05
-1.55345e-11
4.09974e-05
-1.1528e-11
4.09974e-05
-1.00172e-11
4.09975e-05
-1.53362e-11
4.09975e-05
-2.62924e-11
4.09975e-05
-2.46197e-11
-1.95878e-11
0.000111622
1.06419e-10
0.000111622
1.441e-10
0.000111622
1.47906e-10
0.000111622
1.58395e-10
0.000111622
1.58938e-10
0.000111622
1.50819e-10
0.000111621
1.43925e-10
0.000111621
1.08655e-10
0.000111621
8.1925e-11
0.000111621
7.21604e-11
0.000111621
6.47361e-11
0.000111621
3.4744e-11
0.000111621
4.10991e-11
0.000111621
4.04172e-11
0.000111621
4.08472e-11
0.000111621
5.44441e-11
0.000111621
4.45159e-11
0.000111621
3.7433e-11
0.000111621
5.09418e-11
0.000111621
5.18391e-11
0.000111621
3.75781e-11
0.000111621
2.94405e-11
0.000111621
2.72916e-11
0.000111621
3.18894e-11
0.000111621
4.23289e-11
0.000111621
4.19253e-11
0.000111621
3.47111e-11
0.000111621
3.87098e-11
0.000111621
4.60422e-11
0.00011162
4.11777e-11
0.00011162
2.82116e-11
0.00011162
1.57935e-11
0.00011162
4.55612e-12
0.00011162
-3.29969e-12
0.00011162
-7.92508e-12
0.00011162
-1.12654e-11
0.00011162
-9.16111e-12
0.00011162
-6.54076e-12
0.00011162
-1.27596e-11
0.00011162
-2.11677e-11
0.00011162
-2.05407e-11
0.00011162
-1.38524e-11
0.00011162
-8.03319e-12
0.00011162
-5.40748e-12
0.00011162
-7.39189e-12
0.00011162
-1.16765e-11
0.00011162
-1.50598e-11
0.00011162
-1.84681e-11
0.00011162
-1.93837e-11
0.00011162
-1.47034e-11
0.00011162
-9.23864e-12
0.00011162
-9.63662e-12
0.00011162
-1.30408e-11
0.00011162
-1.23953e-11
0.00011162
-6.03405e-12
0.00011162
3.10263e-12
0.00011162
1.18312e-11
0.00011162
2.0469e-11
0.00011162
2.9369e-11
0.00011162
3.31278e-11
0.00011162
2.90413e-11
0.00011162
2.5412e-11
0.00011162
3.01884e-11
0.00011162
3.82747e-11
0.00011162
4.16729e-11
0.00011162
3.82231e-11
0.00011162
3.06572e-11
0.00011162
2.48576e-11
0.00011162
2.36933e-11
0.00011162
2.50976e-11
0.00011162
2.61783e-11
0.00011162
2.74686e-11
0.00011162
2.95015e-11
0.00011162
2.9731e-11
0.00011162
2.97223e-11
0.00011162
3.30192e-11
0.00011162
3.68955e-11
0.00011162
3.41986e-11
0.00011162
2.31582e-11
0.00011162
1.01588e-11
0.00011162
3.12841e-12
0.00011162
3.33885e-12
0.00011162
7.65937e-12
0.00011162
1.1743e-11
0.00011162
1.06991e-11
0.00011162
4.10638e-12
0.00011162
-3.92241e-13
0.00011162
9.88081e-13
0.00011162
3.4819e-12
0.00011162
2.38118e-12
0.00011162
2.33653e-12
0.00011162
7.38973e-12
0.00011162
1.24094e-11
0.00011162
1.12404e-11
0.00011162
4.92392e-12
0.00011162
-1.99439e-13
0.00011162
-1.63016e-12
0.00011162
2.36183e-13
0.00011162
3.60827e-12
0.00011162
5.92186e-12
0.00011162
6.56062e-12
0.00011162
7.63712e-12
0.00011162
1.04644e-11
0.00011162
1.29291e-11
0.00011162
1.38179e-11
0.00011162
1.38203e-11
0.00011162
1.08826e-11
0.00011162
4.15907e-12
0.00011162
2.15251e-13
0.00011162
1.14607e-12
0.00011162
2.27199e-12
0.00011162
1.375e-12
0.00011162
1.01769e-12
0.00011162
1.71877e-12
0.00011162
2.85898e-12
0.00011162
4.19453e-12
0.00011162
4.68418e-12
0.00011162
3.43569e-12
0.00011162
1.09781e-12
0.00011162
-4.89626e-13
0.00011162
-4.64346e-14
0.00011162
2.40129e-12
0.00011162
4.10124e-12
0.00011162
3.83185e-12
0.00011162
4.93934e-12
0.00011162
8.67544e-12
0.00011162
1.22777e-11
0.00011162
1.28515e-11
0.00011162
1.30511e-11
0.00011162
1.57128e-11
0.00011162
1.6447e-11
0.00011162
1.71812e-11
0.00011162
1.84349e-11
0.00011162
1.29654e-11
0.00011162
6.55865e-12
0.00011162
4.56675e-12
0.00011162
2.54021e-12
0.00011162
2.26208e-12
0.00011162
5.25806e-12
0.00011162
1.00858e-11
0.00011162
1.16892e-11
0.00011162
8.34446e-12
0.00011162
1.08082e-12
0.00011162
-3.96874e-12
0.00011162
-1.15912e-12
0.00011162
-5.15343e-12
0.00011162
-3.16415e-12
0.00011162
-2.725e-11
0.00011162
-4.49657e-11
-4.32708e-11
0.000171043
1.5792e-10
0.000171043
2.31745e-10
0.000171043
2.64978e-10
0.000171043
3.28882e-10
0.000171042
3.52209e-10
0.000171042
3.45278e-10
0.000171042
3.39583e-10
0.000171042
2.95263e-10
0.000171042
2.84064e-10
0.000171042
2.30406e-10
0.000171041
2.02829e-10
0.000171041
1.8566e-10
0.000171041
1.61891e-10
0.000171041
1.49688e-10
0.000171041
1.41565e-10
0.000171041
1.44814e-10
0.000171041
1.37075e-10
0.000171041
1.21316e-10
0.000171041
1.0861e-10
0.000171041
9.65204e-11
0.000171041
8.2989e-11
0.000171041
7.45437e-11
0.000171041
6.67221e-11
0.000171041
5.93086e-11
0.00017104
6.54111e-11
0.00017104
7.3635e-11
0.00017104
6.65173e-11
0.00017104
5.27147e-11
0.00017104
4.36507e-11
0.00017104
3.8935e-11
0.00017104
3.85115e-11
0.00017104
3.76116e-11
0.00017104
2.62674e-11
0.00017104
9.24784e-12
0.00017104
-3.38499e-12
0.00017104
-1.1625e-11
0.00017104
-1.43196e-11
0.00017104
-9.81075e-12
0.00017104
-8.53827e-12
0.00017104
-1.64587e-11
0.00017104
-2.32453e-11
0.00017104
-2.17128e-11
0.00017104
-1.52947e-11
0.00017104
-7.53328e-12
0.00017104
-2.78046e-12
0.00017104
-3.53221e-12
0.00017104
-7.80863e-12
0.00017104
-1.5803e-11
0.00017104
-2.53484e-11
0.00017104
-2.92894e-11
0.00017104
-2.68904e-11
0.00017104
-2.32298e-11
0.00017104
-1.97542e-11
0.00017104
-1.42144e-11
0.00017104
-7.14622e-12
0.00017104
1.07162e-12
0.00017104
8.05073e-12
0.00017104
1.40334e-11
0.00017104
2.20564e-11
0.00017104
3.17404e-11
0.00017104
3.75668e-11
0.00017104
3.69116e-11
0.00017104
3.46667e-11
0.00017104
3.56926e-11
0.00017104
3.8043e-11
0.00017104
3.85291e-11
0.00017104
3.58913e-11
0.00017104
3.19979e-11
0.00017104
3.07279e-11
0.00017104
3.23467e-11
0.00017104
3.33022e-11
0.00017104
3.34535e-11
0.00017104
3.5303e-11
0.00017104
3.78868e-11
0.00017104
3.78398e-11
0.00017104
3.56667e-11
0.00017104
3.37271e-11
0.00017104
3.04727e-11
0.00017104
2.31624e-11
0.00017104
1.34472e-11
0.00017104
5.14855e-12
0.00017104
1.08002e-12
0.00017104
1.11756e-13
0.00017104
1.34045e-12
0.00017104
4.02556e-12
0.00017104
4.1325e-12
0.00017104
4.76479e-13
0.00017104
-7.43303e-13
0.00017104
3.46319e-12
0.00017104
7.88046e-12
0.00017104
8.4551e-12
0.00017104
9.84618e-12
0.00017104
1.6095e-11
0.00017104
2.26357e-11
0.00017104
2.38543e-11
0.00017104
1.95753e-11
0.00017104
1.316e-11
0.00017104
7.02822e-12
0.00017104
2.92255e-12
0.00017104
1.75727e-12
0.00017104
3.34152e-12
0.00017104
6.7334e-12
0.00017104
1.04544e-11
0.00017104
1.2624e-11
0.00017104
1.27026e-11
0.00017104
1.40417e-11
0.00017104
1.76004e-11
0.00017104
1.94814e-11
0.00017104
1.70366e-11
0.00017104
1.34239e-11
0.00017104
9.79302e-12
0.00017104
4.37551e-12
0.00017104
-1.30898e-12
0.00017104
-4.98261e-12
0.00017104
-5.2653e-12
0.00017104
-3.91624e-12
0.00017104
-3.62799e-12
0.00017104
-4.07175e-12
0.00017104
-3.2547e-12
0.00017104
-3.03896e-12
0.00017104
-3.80732e-12
0.00017104
-7.09486e-13
0.00017104
9.03238e-12
0.00017104
1.83211e-11
0.00017104
2.07343e-11
0.00017104
1.74469e-11
0.00017104
1.24166e-11
0.00017104
7.44616e-12
0.00017104
4.26385e-12
0.00017104
7.7656e-12
0.00017104
1.04998e-11
0.00017104
5.95919e-12
0.00017104
6.73302e-12
0.00017104
1.51207e-11
0.00017104
2.2035e-11
0.00017104
2.22329e-11
0.00017104
1.65835e-11
0.00017104
1.15892e-11
0.00017104
5.66076e-12
0.00017104
1.314e-12
0.00017104
-2.94644e-12
0.00017104
-8.46631e-12
0.00017104
-1.48844e-11
0.00017104
-3.0462e-11
0.00017104
-3.38144e-11
0.00017104
-2.85829e-11
0.00017104
-3.84737e-11
0.00017104
-3.55287e-11
0.00017104
-5.57249e-11
-3.77268e-11
0.000219418
2.10745e-10
0.000219418
2.72035e-10
0.000219418
3.11551e-10
0.000219418
3.61295e-10
0.000219417
3.95555e-10
0.000219417
4.61974e-10
0.000219417
4.57852e-10
0.000219417
4.57214e-10
0.000219417
4.20747e-10
0.000219417
4.04728e-10
0.000219417
3.66956e-10
0.000219416
3.45566e-10
0.000219416
3.20254e-10
0.000219416
2.93883e-10
0.000219416
2.65686e-10
0.000219416
2.35745e-10
0.000219416
2.14938e-10
0.000219416
2.02162e-10
0.000219416
1.78999e-10
0.000219416
1.56084e-10
0.000219415
1.42738e-10
0.000219415
1.31915e-10
0.000219415
1.21659e-10
0.000219415
1.10305e-10
0.000219415
1.04044e-10
0.000219415
1.05625e-10
0.000219415
1.02264e-10
0.000219415
9.08852e-11
0.000219415
7.79839e-11
0.000219415
6.27456e-11
0.000219415
4.74572e-11
0.000219415
3.86385e-11
0.000219415
3.17183e-11
0.000219415
2.27025e-11
0.000219415
1.66882e-11
0.000219415
1.26283e-11
0.000219415
6.38495e-12
0.000219415
3.46605e-12
0.000219415
5.17563e-12
0.000219415
5.46148e-12
0.000219415
3.95759e-12
0.000219415
1.66769e-12
0.000219415
-3.7854e-12
0.000219415
-9.61909e-12
0.000219415
-1.3354e-11
0.000219415
-1.72589e-11
0.000219415
-1.91067e-11
0.000219415
-1.99342e-11
0.000219415
-2.57068e-11
0.000219415
-3.55257e-11
0.000219415
-4.42637e-11
0.000219415
-4.87301e-11
0.000219415
-4.61755e-11
0.000219415
-3.52412e-11
0.000219415
-1.90954e-11
0.000219415
-2.45214e-12
0.000219415
8.45073e-12
0.000219415
1.13504e-11
0.000219415
1.27325e-11
0.000219415
2.09192e-11
0.000219415
3.43109e-11
0.000219415
4.20615e-11
0.000219415
3.99352e-11
0.000219415
3.41542e-11
0.000219415
3.26638e-11
0.000219415
3.59401e-11
0.000219415
4.02053e-11
0.000219415
4.21604e-11
0.000219415
4.26654e-11
0.000219415
4.35118e-11
0.000219415
4.29449e-11
0.000219415
4.06088e-11
0.000219415
3.97736e-11
0.000219415
4.27128e-11
0.000219415
4.63958e-11
0.000219415
4.68477e-11
0.000219415
4.37316e-11
0.000219415
3.72529e-11
0.000219415
2.77553e-11
0.000219415
1.77319e-11
0.000219415
1.01706e-11
0.000219415
6.46686e-12
0.000219415
4.38456e-12
0.000219415
1.30993e-12
0.000219415
-4.08109e-13
0.000219415
1.88011e-12
0.000219415
5.42113e-12
0.000219415
9.39307e-12
0.000219415
1.49335e-11
0.000219415
2.17387e-11
0.000219415
2.34624e-11
0.000219415
1.9104e-11
0.000219415
1.64503e-11
0.000219415
2.03983e-11
0.000219415
2.69314e-11
0.000219415
2.9908e-11
0.000219415
2.76225e-11
0.000219415
2.19689e-11
0.000219415
1.52649e-11
0.000219415
9.99401e-12
0.000219415
7.58338e-12
0.000219415
7.95228e-12
0.000219415
9.75027e-12
0.000219415
1.09592e-11
0.000219415
1.05413e-11
0.000219415
9.88747e-12
0.000219415
1.13866e-11
0.000219415
1.41183e-11
0.000219415
1.35379e-11
0.000219415
1.02782e-11
0.000219415
7.44286e-12
0.000219415
6.0511e-12
0.000219415
6.45591e-12
0.000219415
7.26674e-12
0.000219415
7.15647e-12
0.000219415
5.97245e-12
0.000219415
3.83464e-12
0.000219415
1.73564e-12
0.000219415
1.4473e-12
0.000219415
2.38614e-12
0.000219415
1.01517e-12
0.000219415
-1.14702e-12
0.000219415
3.53834e-12
0.000219415
1.36763e-11
0.000219415
1.98158e-11
0.000219415
2.06e-11
0.000219415
2.11129e-11
0.000219415
2.16512e-11
0.000219415
1.84059e-11
0.000219415
1.48877e-11
0.000219415
1.37797e-11
0.000219415
9.83009e-12
0.000219415
9.99735e-12
0.000219415
1.57422e-11
0.000219415
1.66902e-11
0.000219415
1.59863e-11
0.000219415
1.50451e-11
0.000219415
1.34189e-11
0.000219415
1.03024e-11
0.000219415
1.55304e-12
0.000219415
-5.93901e-12
0.000219415
-6.5176e-12
0.000219415
-7.24499e-12
0.000219415
-1.91502e-11
0.000219415
-2.54234e-11
0.000219415
-2.00601e-11
0.000219415
-2.26593e-11
0.000219415
-2.9843e-11
0.000219415
-5.11652e-11
-5.29551e-11
0.000256885
1.78159e-10
0.000256885
2.31504e-10
0.000256886
2.89732e-10
0.000256886
3.35444e-10
0.000256886
3.69562e-10
0.000256886
4.26666e-10
0.000256886
4.49627e-10
0.000256885
4.99619e-10
0.000256885
5.05146e-10
0.000256885
4.97579e-10
0.000256885
4.91059e-10
0.000256885
4.76601e-10
0.000256885
4.50518e-10
0.000256885
4.3408e-10
0.000256885
3.97958e-10
0.000256885
3.39363e-10
0.000256884
3.11609e-10
0.000256884
2.99869e-10
0.000256884
2.70812e-10
0.000256884
2.38344e-10
0.000256884
2.13918e-10
0.000256884
1.90702e-10
0.000256884
1.69833e-10
0.000256884
1.502e-10
0.000256884
1.28768e-10
0.000256884
1.17733e-10
0.000256884
1.19403e-10
0.000256884
1.1729e-10
0.000256884
1.04038e-10
0.000256884
8.62361e-11
0.000256884
7.2204e-11
0.000256884
6.64666e-11
0.000256884
6.37732e-11
0.000256884
5.5897e-11
0.000256883
4.75748e-11
0.000256883
4.45843e-11
0.000256883
4.0931e-11
0.000256883
3.52423e-11
0.000256883
3.29897e-11
0.000256883
3.19424e-11
0.000256883
2.84678e-11
0.000256883
2.16177e-11
0.000256883
1.02917e-11
0.000256883
-4.00134e-13
0.000256883
-4.60729e-12
0.000256883
-5.4437e-12
0.000256883
-6.27193e-12
0.000256883
-7.49226e-12
0.000256883
-1.3482e-11
0.000256883
-2.51074e-11
0.000256883
-3.50632e-11
0.000256883
-3.77884e-11
0.000256883
-3.32963e-11
0.000256883
-2.46008e-11
0.000256883
-1.51083e-11
0.000256883
-6.45387e-12
0.000256883
2.28614e-12
0.000256883
9.96425e-12
0.000256883
1.49954e-11
0.000256883
1.87946e-11
0.000256883
2.48094e-11
0.000256883
2.98177e-11
0.000256883
3.05164e-11
0.000256883
2.7457e-11
0.000256883
2.60724e-11
0.000256883
3.02603e-11
0.000256883
3.65567e-11
0.000256883
3.89601e-11
0.000256883
3.73097e-11
0.000256883
3.77592e-11
0.000256883
4.28398e-11
0.000256883
4.76871e-11
0.000256883
4.86938e-11
0.000256883
4.71218e-11
0.000256883
4.44954e-11
0.000256883
3.90515e-11
0.000256883
3.04569e-11
0.000256883
2.04468e-11
0.000256883
1.04779e-11
0.000256883
1.14842e-12
0.000256883
-5.6657e-12
0.000256883
-8.58751e-12
0.000256883
-8.87576e-12
0.000256883
-1.00653e-11
0.000256883
-1.23436e-11
0.000256883
-1.14586e-11
0.000256883
-6.64287e-12
0.000256883
-1.37398e-12
0.000256883
1.86294e-12
0.000256883
5.10609e-12
0.000256883
8.17588e-12
0.000256883
8.12702e-12
0.000256883
6.02081e-12
0.000256883
7.32169e-12
0.000256883
1.25343e-11
0.000256883
1.63992e-11
0.000256883
1.57718e-11
0.000256883
1.32721e-11
0.000256883
1.19593e-11
0.000256883
1.11417e-11
0.000256883
8.50981e-12
0.000256883
3.59479e-12
0.000256883
-9.13051e-13
0.000256883
-1.44773e-12
0.000256883
1.74888e-12
0.000256883
5.23008e-12
0.000256883
7.81714e-12
0.000256883
1.02307e-11
0.000256883
1.10941e-11
0.000256883
1.04872e-11
0.000256883
9.97468e-12
0.000256883
9.96507e-12
0.000256883
8.8539e-12
0.000256883
5.72657e-12
0.000256883
2.26082e-12
0.000256883
1.69185e-12
0.000256883
3.39592e-12
0.000256883
3.50842e-12
0.000256883
7.42462e-13
0.000256883
-1.06685e-12
0.000256883
5.34786e-13
0.000256883
2.52434e-12
0.000256883
4.54419e-12
0.000256883
8.41114e-12
0.000256883
1.19957e-11
0.000256883
1.39669e-11
0.000256883
1.75254e-11
0.000256883
2.19455e-11
0.000256883
2.15223e-11
0.000256883
1.5695e-11
0.000256883
1.27596e-11
0.000256884
1.22828e-11
0.000256884
1.1105e-11
0.000256884
1.17904e-11
0.000256884
9.80937e-12
0.000256884
8.17144e-12
0.000256884
9.64597e-12
0.000256884
1.27679e-11
0.000256884
2.01095e-11
0.000256884
1.93126e-11
0.000256884
1.98284e-12
0.000256884
-1.7558e-11
0.000256883
-1.68214e-11
0.000256884
-5.21664e-12
0.000256884
-7.41318e-12
0.000256884
-2.55276e-11
0.000256884
-2.71579e-11
0.000256884
-2.81866e-11
0.000256884
-2.66441e-11
-2.86347e-11
0.000283562
1.82933e-10
0.000283562
1.78369e-10
0.000283562
2.44742e-10
0.000283562
2.62351e-10
0.000283562
3.40454e-10
0.000283562
3.48135e-10
0.000283562
4.30616e-10
0.000283562
4.69296e-10
0.000283562
4.98659e-10
0.000283562
5.34725e-10
0.000283562
5.63167e-10
0.000283562
5.42329e-10
0.000283562
5.15336e-10
0.000283562
4.96122e-10
0.000283562
4.67781e-10
0.000283562
4.34643e-10
0.000283561
4.08943e-10
0.000283561
3.82713e-10
0.000283561
3.4978e-10
0.000283561
3.14318e-10
0.000283561
2.81081e-10
0.000283561
2.52262e-10
0.000283561
2.31492e-10
0.000283561
2.15078e-10
0.000283561
1.92861e-10
0.000283561
1.71499e-10
0.000283561
1.60478e-10
0.000283561
1.49871e-10
0.000283561
1.34202e-10
0.000283561
1.20785e-10
0.000283561
1.10557e-10
0.000283561
1.00232e-10
0.000283561
9.08027e-11
0.000283561
8.21938e-11
0.000283561
7.57202e-11
0.000283561
7.42447e-11
0.000283561
7.09697e-11
0.000283561
5.94319e-11
0.000283561
4.76071e-11
0.000283561
4.05962e-11
0.000283561
3.32033e-11
0.000283561
2.20389e-11
0.000283561
7.83147e-12
0.00028356
-3.48376e-12
0.00028356
-4.44139e-12
0.00028356
1.29414e-12
0.00028356
3.31826e-12
0.00028356
-2.33621e-12
0.00028356
-1.41241e-11
0.00028356
-2.7316e-11
0.00028356
-3.31314e-11
0.00028356
-2.68387e-11
0.00028356
-1.41135e-11
0.00028356
-5.72099e-12
0.00028356
-7.2862e-12
0.00028356
-1.26341e-11
0.00028356
-1.01596e-11
0.00028356
4.29087e-12
0.00028356
2.10843e-11
0.00028356
2.76038e-11
0.00028356
2.27893e-11
0.00028356
1.64589e-11
0.00028356
1.47415e-11
0.00028356
1.72179e-11
0.00028356
1.91016e-11
0.00028356
2.0158e-11
0.00028356
2.24104e-11
0.00028356
2.73779e-11
0.00028356
3.28371e-11
0.00028356
3.6999e-11
0.00028356
4.04041e-11
0.00028356
4.22329e-11
0.00028356
4.09907e-11
0.00028356
3.91657e-11
0.00028356
3.97396e-11
0.00028356
3.93774e-11
0.00028356
3.18403e-11
0.00028356
1.8076e-11
0.000283561
5.87523e-12
0.000283561
-4.69185e-13
0.000283561
-3.40961e-12
0.000283561
-6.65951e-12
0.000283561
-1.12264e-11
0.000283561
-1.57884e-11
0.000283561
-1.73783e-11
0.000283561
-1.25355e-11
0.000283561
-1.90174e-12
0.000283561
6.82414e-12
0.000283561
7.90472e-12
0.000283561
5.43682e-12
0.000283561
7.41156e-12
0.000283561
1.30627e-11
0.000283561
1.48252e-11
0.000283561
1.11243e-11
0.000283561
7.59226e-12
0.000283561
7.77054e-12
0.000283561
9.35293e-12
0.000283561
9.01507e-12
0.000283561
6.33192e-12
0.000283561
2.03323e-12
0.000283561
-2.13357e-12
0.000283561
-3.97987e-12
0.000283561
-3.97781e-12
0.000283561
-3.15768e-12
0.000283561
-2.09222e-12
0.000283561
-2.78917e-12
0.000283561
-4.47904e-12
0.000283561
-3.409e-12
0.000283561
1.13171e-13
0.000283561
1.78784e-12
0.000283561
-5.05129e-13
0.000283561
-3.90225e-12
0.000283561
-3.81873e-12
0.000283561
-1.88082e-13
0.000283561
2.19017e-12
0.000283561
1.61816e-12
0.000283561
8.08363e-13
0.000283561
1.10709e-12
0.000283561
1.34632e-12
0.000283561
1.78769e-12
0.000283561
5.81542e-12
0.000283561
1.03304e-11
0.000283561
9.18718e-12
0.000283561
7.62014e-12
0.000283561
1.02174e-11
0.000283561
1.11401e-11
0.000283561
6.96743e-12
0.000283561
2.91028e-12
0.000283561
4.08507e-12
0.000283561
7.65957e-12
0.000283561
1.09343e-11
0.000283561
1.15919e-11
0.000283561
4.9643e-12
0.000283561
-5.08905e-13
0.000283561
-5.61717e-14
0.000283561
-4.40713e-13
0.000283561
3.96567e-12
0.000283561
8.67372e-12
0.000283561
8.97427e-12
0.000283561
8.58641e-12
0.000283561
4.79264e-12
0.000283561
-8.56239e-14
0.000283561
-1.40174e-11
0.000283561
-1.56883e-11
0.000283561
-1.77177e-11
0.000283561
-2.21111e-11
0.000283561
-3.55334e-11
0.000283561
-4.40284e-11
0.000283561
-3.50892e-11
-4.97575e-11
0.000299532
1.63281e-10
0.000299532
1.63035e-10
0.000299532
1.91185e-10
0.000299532
2.15958e-10
0.000299532
2.58913e-10
0.000299532
2.90766e-10
0.000299532
3.57755e-10
0.000299532
4.04024e-10
0.000299532
4.46707e-10
0.000299532
4.89185e-10
0.000299532
5.05088e-10
0.000299532
5.04145e-10
0.000299532
5.12628e-10
0.000299532
4.96671e-10
0.000299532
4.72326e-10
0.000299532
4.66672e-10
0.000299532
4.50602e-10
0.000299532
4.07325e-10
0.000299532
3.6371e-10
0.000299532
3.36964e-10
0.000299532
3.195e-10
0.000299532
3.02469e-10
0.000299532
2.79471e-10
0.000299532
2.51997e-10
0.000299532
2.27601e-10
0.000299532
2.10661e-10
0.000299532
1.9824e-10
0.000299532
1.82026e-10
0.000299532
1.63434e-10
0.000299532
1.51537e-10
0.000299532
1.45249e-10
0.000299532
1.36513e-10
0.000299532
1.23746e-10
0.000299532
1.10367e-10
0.000299532
9.92142e-11
0.000299532
9.38038e-11
0.000299532
9.22888e-11
0.000299532
8.54804e-11
0.000299532
7.09028e-11
0.000299532
5.29717e-11
0.000299532
3.55372e-11
0.000299532
2.47108e-11
0.000299532
2.07005e-11
0.000299532
1.80993e-11
0.000299532
1.54371e-11
0.000299532
1.20532e-11
0.000299532
5.01098e-12
0.000299532
-4.01446e-12
0.000299532
-9.86474e-12
0.000299532
-1.19298e-11
0.000299532
-1.37243e-11
0.000299532
-1.595e-11
0.000299532
-1.51521e-11
0.000299532
-8.49529e-12
0.000299532
-1.71769e-13
0.000299532
2.64558e-12
0.000299532
-1.38252e-12
0.000299532
-4.34139e-12
0.000299532
9.59276e-13
0.000299532
1.30086e-11
0.000299532
2.29534e-11
0.000299532
2.42897e-11
0.000299532
1.95269e-11
0.000299532
1.53482e-11
0.000299532
1.66017e-11
0.000299532
2.30851e-11
0.000299532
3.02106e-11
0.000299532
3.37482e-11
0.000299532
3.29573e-11
0.000299532
3.12508e-11
0.000299532
3.20451e-11
0.000299532
3.61291e-11
0.000299532
3.79366e-11
0.000299532
3.25238e-11
0.000299532
2.30552e-11
0.000299532
1.63645e-11
0.000299532
1.23274e-11
0.000299532
5.02732e-12
0.000299532
-6.88027e-12
0.000299532
-1.80779e-11
0.000299532
-2.45703e-11
0.000299532
-2.56017e-11
0.000299532
-2.22747e-11
0.000299532
-1.82019e-11
0.000299532
-1.7168e-11
0.000299532
-1.77689e-11
0.000299532
-1.33621e-11
0.000299532
-3.01122e-12
0.000299532
5.04489e-12
0.000299532
3.61187e-12
0.000299532
-3.17889e-12
0.000299532
-5.832e-12
0.000299532
-2.06897e-12
0.000299532
3.05634e-12
0.000299532
5.66908e-12
0.000299532
5.07857e-12
0.000299532
2.09595e-12
0.000299532
-1.42402e-12
0.000299532
-2.65164e-12
0.000299532
-1.73799e-12
0.000299532
-2.55877e-12
0.000299532
-5.94684e-12
0.000299532
-8.98949e-12
0.000299532
-9.25127e-12
0.000299532
-5.85355e-12
0.000299532
-2.58198e-12
0.000299532
-3.88779e-12
0.000299532
-7.67925e-12
0.000299532
-8.40744e-12
0.000299532
-3.68888e-12
0.000299532
2.34392e-12
0.000299532
3.52555e-12
0.000299532
3.31204e-14
0.000299532
-1.49842e-12
0.000299532
2.20768e-12
0.000299532
6.25698e-12
0.000299532
6.84566e-12
0.000299532
4.02154e-12
0.000299532
6.53742e-13
0.000299532
2.90478e-13
0.000299532
7.50578e-12
0.000299532
1.88e-11
0.000299532
1.96904e-11
0.000299532
9.3187e-12
0.000299532
3.56813e-12
0.000299532
6.76678e-12
0.000299532
1.0034e-11
0.000299532
9.34551e-12
0.000299532
7.90298e-12
0.000299532
4.49554e-12
0.000299532
-1.64352e-12
0.000299532
-9.8766e-13
0.000299532
1.30267e-12
0.000299532
-2.44544e-12
0.000299532
-5.21469e-12
0.000299532
-6.02801e-12
0.000299532
5.67792e-13
0.000299532
2.88064e-12
0.000299532
-1.14857e-12
0.000299532
4.35389e-12
0.000299532
3.54995e-12
0.000299532
4.63967e-12
0.000299532
2.57016e-12
0.000299532
-6.99479e-12
0.000299532
-1.96019e-11
0.000299532
-2.14312e-11
0.000299532
-1.08722e-11
0.000299532
-3.59163e-11
0.000299532
-4.05644e-11
-5.05225e-11
0.00030485
5.73337e-11
0.00030485
8.955e-11
0.00030485
9.70085e-11
0.00030485
1.4514e-10
0.00030485
1.48678e-10
0.00030485
2.39311e-10
0.00030485
2.76391e-10
0.00030485
3.21714e-10
0.00030485
3.87897e-10
0.00030485
4.23745e-10
0.00030485
4.34083e-10
0.00030485
4.54464e-10
0.00030485
4.69295e-10
0.00030485
4.56973e-10
0.00030485
4.44895e-10
0.00030485
4.38068e-10
0.00030485
4.17749e-10
0.00030485
3.91344e-10
0.00030485
3.75329e-10
0.00030485
3.62295e-10
0.00030485
3.42753e-10
0.00030485
3.21798e-10
0.00030485
2.99958e-10
0.00030485
2.77485e-10
0.00030485
2.57194e-10
0.00030485
2.35408e-10
0.00030485
2.12356e-10
0.00030485
1.93645e-10
0.00030485
1.80347e-10
0.00030485
1.67517e-10
0.00030485
1.50637e-10
0.00030485
1.32247e-10
0.00030485
1.1719e-10
0.00030485
1.06421e-10
0.00030485
9.67073e-11
0.00030485
8.81019e-11
0.00030485
8.28451e-11
0.00030485
7.65988e-11
0.00030485
6.60104e-11
0.00030485
5.24904e-11
0.00030485
3.63928e-11
0.00030485
2.23658e-11
0.00030485
1.8218e-11
0.00030485
2.15792e-11
0.00030485
2.42169e-11
0.00030485
2.08195e-11
0.00030485
1.02653e-11
0.00030485
-1.59985e-12
0.00030485
-6.03558e-12
0.00030485
-8.86232e-13
0.00030485
7.35442e-12
0.00030485
8.54845e-12
0.00030485
4.64597e-14
0.00030485
-1.0332e-11
0.00030485
-1.28954e-11
0.00030485
-6.96387e-12
0.00030485
7.21981e-14
0.00030485
1.62935e-12
0.00030485
5.78543e-13
0.00030485
2.00338e-12
0.00030485
9.43484e-12
0.00030485
1.86188e-11
0.00030485
2.4835e-11
0.00030485
2.50523e-11
0.00030485
2.04396e-11
0.00030485
1.71738e-11
0.00030485
2.04204e-11
0.00030485
2.898e-11
0.00030485
3.62906e-11
0.00030485
3.71528e-11
0.00030485
3.22349e-11
0.00030485
2.87733e-11
0.00030485
3.13249e-11
0.00030485
3.30966e-11
0.00030485
2.55466e-11
0.00030485
1.0393e-11
0.00030485
-3.12771e-12
0.00030485
-1.03414e-11
0.00030485
-1.36937e-11
0.00030485
-1.68025e-11
0.00030485
-2.16505e-11
0.00030485
-2.88599e-11
0.00030485
-3.42648e-11
0.00030485
-3.15506e-11
0.00030485
-2.20536e-11
0.00030485
-1.45771e-11
0.00030485
-1.26069e-11
0.00030485
-1.01076e-11
0.00030485
-3.9995e-12
0.00030485
6.51535e-13
0.00030485
-1.52035e-12
0.00030485
-7.65033e-12
0.00030485
-1.24646e-11
0.00030485
-1.3895e-11
0.00030485
-1.20881e-11
0.00030485
-8.06709e-12
0.00030485
-5.54256e-12
0.00030485
-7.28361e-12
0.00030485
-1.05709e-11
0.00030485
-1.07604e-11
0.00030485
-7.99828e-12
0.00030485
-6.45543e-12
0.00030485
-9.13639e-12
0.00030485
-1.45297e-11
0.00030485
-1.75556e-11
0.00030485
-1.4282e-11
0.00030485
-8.00557e-12
0.00030485
-3.23282e-12
0.00030485
-1.54371e-12
0.00030485
-2.26408e-12
0.00030485
-2.2713e-12
0.00030485
4.94757e-13
0.00030485
4.68957e-12
0.00030485
6.9895e-12
0.00030485
6.37336e-12
0.00030485
4.4802e-12
0.00030485
4.08597e-12
0.00030485
7.8985e-12
0.00030485
1.37149e-11
0.00030485
1.46292e-11
0.00030485
8.82874e-12
0.00030485
5.5722e-12
0.00030485
8.21678e-12
0.00030485
8.62508e-12
0.00030485
5.00503e-12
0.00030485
1.18096e-12
0.00030485
2.29292e-12
0.00030485
7.37573e-12
0.00030485
6.36349e-12
0.00030485
-1.88774e-12
0.00030485
-1.28527e-11
0.00030485
-1.80339e-11
0.00030485
-1.55636e-11
0.00030485
-1.30478e-11
0.00030485
-7.36969e-12
0.00030485
-1.7674e-12
0.00030485
-3.55039e-12
0.00030485
-6.83848e-12
0.00030485
-1.21211e-11
0.00030485
-1.54506e-11
0.00030485
-1.24916e-11
0.00030485
-1.71017e-11
0.00030485
-9.04398e-12
0.00030485
-1.1906e-11
0.00030485
1.0866e-12
0.00030485
-1.42967e-11
0.00030485
-2.73741e-11
0.00030485
-2.41545e-11
0.00030485
-4.49295e-11
-5.67503e-11
0.000299533
6.67835e-11
0.000299533
4.69367e-11
0.000299533
4.88202e-11
0.000299533
9.23622e-11
0.000299533
1.24544e-10
0.000299533
1.78653e-10
0.000299533
2.18562e-10
0.000299533
2.60967e-10
0.000299533
3.14371e-10
0.000299533
3.31422e-10
0.000299533
3.54819e-10
0.000299533
3.95937e-10
0.000299533
4.03517e-10
0.000299533
3.94472e-10
0.000299533
3.98561e-10
0.000299533
3.95652e-10
0.000299533
3.782e-10
0.000299533
3.62046e-10
0.000299533
3.55365e-10
0.000299533
3.54043e-10
0.000299533
3.46134e-10
0.000299533
3.23402e-10
0.000299534
2.90912e-10
0.000299534