/*--------------------------------*- C++ -*----------------------------------*\
| =========                 |                                                 |
| \\      /  F ield         | OpenFOAM: The Open Source CFD Toolbox           |
|  \\    /   O peration     | Version:  2406                                  |
|   \\  /    A nd           | Website:  www.openfoam.com                      |
|    \\/     M anipulation  |                                                 |
\*---------------------------------------------------------------------------*/
FoamFile
{
    version     2.0;
    format      ascii;
    arch        "LSB;label=32;scalar=64";
    class       volVectorField;
    location    "0.3";
    object      U;
}
// * * * * * * * * * * * * * * * * * * * * * * * * * * * * * * * * * * * * * //

dimensions      [0 1 -1 0 0 0 0];

internalField   nonuniform List<vector> 
2250
(
(0.614971 4.4354e-07 0)
(0.61497 3.33017e-07 0)
(0.61497 1.67772e-07 0)
(0.614969 -1.34996e-10 0)
(0.614968 -4.33638e-08 0)
(0.614968 -1.09856e-07 0)
(0.614967 -1.49298e-07 0)
(0.614967 -2.69043e-07 0)
(0.614967 -2.13103e-07 0)
(0.614967 -7.90341e-08 0)
(0.614967 -1.95858e-07 0)
(0.614967 -1.43189e-07 0)
(0.614967 -7.06901e-08 0)
(0.614967 -1.07009e-07 0)
(0.614967 -6.6165e-08 0)
(0.614967 -5.91318e-09 0)
(0.614967 -3.71317e-08 0)
(0.614967 -6.79004e-08 0)
(0.614967 4.66529e-08 0)
(0.614967 1.37651e-07 0)
(0.614967 1.24254e-07 0)
(0.614967 1.10342e-07 0)
(0.614967 6.11306e-08 0)
(0.614966 -1.65169e-08 0)
(0.614966 -5.09331e-08 0)
(0.614966 -3.66536e-08 0)
(0.614965 2.00273e-08 0)
(0.614965 7.86889e-08 0)
(0.614965 9.00328e-08 0)
(0.614965 4.90334e-08 0)
(0.614965 -1.58892e-08 0)
(0.614965 -7.03471e-08 0)
(0.614965 -7.98279e-08 0)
(0.614964 -5.32375e-08 0)
(0.614964 -4.07599e-08 0)
(0.614965 -4.38019e-08 0)
(0.614965 -5.10246e-08 0)
(0.614965 -9.53286e-08 0)
(0.614965 -1.57591e-07 0)
(0.614965 -1.62063e-07 0)
(0.614965 -1.06525e-07 0)
(0.614965 -4.76425e-08 0)
(0.614965 -1.50493e-08 0)
(0.614966 -1.22304e-08 0)
(0.614966 -2.40197e-08 0)
(0.614965 -8.28592e-09 0)
(0.614965 3.59717e-08 0)
(0.614966 7.57977e-08 0)
(0.614966 1.01484e-07 0)
(0.614966 9.32225e-08 0)
(0.614966 3.37396e-08 0)
(0.614966 -3.81647e-08 0)
(0.614965 -6.60272e-08 0)
(0.614965 -4.26502e-08 0)
(0.614965 7.03849e-09 0)
(0.614965 5.95934e-08 0)
(0.614965 9.14593e-08 0)
(0.614965 8.50133e-08 0)
(0.614965 4.54625e-08 0)
(0.614965 2.13327e-09 0)
(0.614965 1.01666e-08 0)
(0.614965 8.71494e-08 0)
(0.614965 1.72019e-07 0)
(0.614965 1.87066e-07 0)
(0.614965 1.33976e-07 0)
(0.614964 6.12371e-08 0)
(0.614964 3.18918e-08 0)
(0.614964 5.60987e-08 0)
(0.614963 8.49537e-08 0)
(0.614963 6.88247e-08 0)
(0.614963 2.65667e-08 0)
(0.614963 1.19702e-08 0)
(0.614963 3.92308e-08 0)
(0.614963 8.65026e-08 0)
(0.614963 1.36503e-07 0)
(0.614963 1.62485e-07 0)
(0.614963 1.38177e-07 0)
(0.614963 8.13239e-08 0)
(0.614963 4.31298e-08 0)
(0.614962 4.80127e-08 0)
(0.614962 7.46611e-08 0)
(0.614962 8.92366e-08 0)
(0.614962 8.09497e-08 0)
(0.614962 5.20697e-08 0)
(0.614962 2.02082e-08 0)
(0.614961 5.46614e-09 0)
(0.614961 7.08924e-09 0)
(0.614961 -1.26039e-08 0)
(0.614961 -6.92206e-08 0)
(0.614961 -1.16392e-07 0)
(0.614961 -1.06788e-07 0)
(0.614962 -7.15809e-08 0)
(0.614962 -6.21841e-08 0)
(0.614962 -7.11803e-08 0)
(0.614962 -5.96179e-08 0)
(0.614962 -2.19653e-08 0)
(0.614962 1.28544e-08 0)
(0.614962 1.99561e-08 0)
(0.614962 -8.18059e-09 0)
(0.614962 -4.29989e-08 0)
(0.614962 -3.98506e-08 0)
(0.614962 8.38621e-10 0)
(0.614961 3.45409e-08 0)
(0.614961 3.33075e-08 0)
(0.614961 1.68912e-08 0)
(0.614961 7.44175e-09 0)
(0.614961 5.78376e-09 0)
(0.614961 1.97263e-08 0)
(0.614961 5.19936e-08 0)
(0.614961 7.42266e-08 0)
(0.61496 7.27249e-08 0)
(0.61496 6.24857e-08 0)
(0.61496 4.77149e-08 0)
(0.61496 2.49631e-08 0)
(0.61496 1.49107e-09 0)
(0.61496 -1.44788e-08 0)
(0.61496 -2.22099e-08 0)
(0.61496 -2.31422e-08 0)
(0.61496 -2.4617e-08 0)
(0.61496 -3.19274e-08 0)
(0.61496 -3.23928e-08 0)
(0.61496 -1.63519e-08 0)
(0.61496 9.53438e-09 0)
(0.61496 4.41988e-08 0)
(0.61496 8.53892e-08 0)
(0.614961 1.1323e-07 0)
(0.614961 1.01315e-07 0)
(0.614961 5.44649e-08 0)
(0.614961 5.16578e-09 0)
(0.614961 -4.80099e-08 0)
(0.614961 -9.28586e-08 0)
(0.614961 -8.78026e-08 0)
(0.614961 -6.51315e-08 0)
(0.614961 -5.57465e-08 0)
(0.614961 -2.40252e-08 0)
(0.614961 2.95626e-08 0)
(0.614961 6.6881e-08 0)
(0.614961 7.69203e-08 0)
(0.614961 7.85116e-08 0)
(0.614961 6.73235e-08 0)
(0.614961 4.19951e-08 0)
(0.614961 -8.93912e-09 0)
(0.614961 -9.66621e-08 0)
(0.614961 -1.24366e-07 0)
(0.614961 -8.34427e-08 0)
(0.614962 -6.19769e-08 0)
(0.614962 -7.96544e-08 0)
(0.614962 -1.34708e-07 0)
(0.614962 -1.21078e-07 0)
(0.614963 -9.53623e-08 0)
(1.67433 1.29663e-06 0)
(1.67433 1.4632e-06 0)
(1.67433 1.27719e-06 0)
(1.67433 1.2306e-06 0)
(1.67433 1.10313e-06 0)
(1.67432 9.72788e-07 0)
(1.67432 8.2423e-07 0)
(1.67432 4.34854e-07 0)
(1.67432 2.76652e-07 0)
(1.67432 3.40078e-07 0)
(1.67432 1.60508e-07 0)
(1.67432 -1.22603e-08 0)
(1.67432 7.65575e-08 0)
(1.67431 9.76507e-08 0)
(1.67431 1.29895e-07 0)
(1.67431 3.35326e-07 0)
(1.67431 2.56178e-07 0)
(1.67431 1.5311e-07 0)
(1.67431 3.71073e-07 0)
(1.67431 4.73448e-07 0)
(1.67431 3.40435e-07 0)
(1.67431 2.75136e-07 0)
(1.67431 2.21917e-07 0)
(1.67431 1.69241e-07 0)
(1.67431 2.10315e-07 0)
(1.67431 2.3179e-07 0)
(1.67431 2.46395e-07 0)
(1.67431 3.46015e-07 0)
(1.67431 4.13308e-07 0)
(1.67431 3.29917e-07 0)
(1.67431 1.70081e-07 0)
(1.67431 2.42173e-08 0)
(1.67431 -7.93691e-08 0)
(1.67431 -1.18351e-07 0)
(1.67431 -1.37078e-07 0)
(1.67431 -1.5785e-07 0)
(1.67431 -1.43651e-07 0)
(1.67431 -1.74909e-07 0)
(1.67431 -2.91407e-07 0)
(1.67431 -3.51095e-07 0)
(1.67431 -2.80423e-07 0)
(1.67431 -1.72357e-07 0)
(1.67431 -9.78295e-08 0)
(1.67431 -7.55344e-08 0)
(1.67431 -9.95963e-08 0)
(1.67431 -1.02507e-07 0)
(1.67431 -6.16023e-08 0)
(1.67431 -3.7963e-08 0)
(1.67431 -2.23142e-08 0)
(1.67431 9.47296e-10 0)
(1.67431 -2.69362e-08 0)
(1.67431 -1.18115e-07 0)
(1.67431 -1.87685e-07 0)
(1.67431 -1.72954e-07 0)
(1.67431 -7.39321e-08 0)
(1.67431 6.58718e-08 0)
(1.67431 1.88287e-07 0)
(1.67431 2.59514e-07 0)
(1.67431 2.75933e-07 0)
(1.67431 2.34837e-07 0)
(1.67431 1.96963e-07 0)
(1.67431 2.55688e-07 0)
(1.67431 3.98974e-07 0)
(1.67431 4.8956e-07 0)
(1.67431 4.59981e-07 0)
(1.67431 3.46547e-07 0)
(1.67431 2.46027e-07 0)
(1.67431 2.24826e-07 0)
(1.67431 2.5554e-07 0)
(1.67431 2.56518e-07 0)
(1.67431 2.17415e-07 0)
(1.67431 2.00761e-07 0)
(1.67431 2.34508e-07 0)
(1.67431 2.84766e-07 0)
(1.67431 3.4091e-07 0)
(1.67431 3.96698e-07 0)
(1.6743 4.00839e-07 0)
(1.6743 3.25602e-07 0)
(1.6743 2.19293e-07 0)
(1.6743 1.41303e-07 0)
(1.6743 1.07318e-07 0)
(1.6743 9.97631e-08 0)
(1.6743 1.09735e-07 0)
(1.6743 1.10446e-07 0)
(1.6743 7.86188e-08 0)
(1.6743 2.66298e-08 0)
(1.6743 4.69144e-09 0)
(1.6743 6.07456e-09 0)
(1.6743 -2.52206e-08 0)
(1.6743 -8.17129e-08 0)
(1.6743 -7.4159e-08 0)
(1.6743 -2.48463e-09 0)
(1.6743 4.24956e-08 0)
(1.6743 2.02499e-08 0)
(1.6743 -1.36336e-08 0)
(1.6743 -4.66294e-09 0)
(1.6743 3.48198e-08 0)
(1.6743 6.83034e-08 0)
(1.6743 6.11907e-08 0)
(1.6743 2.42058e-08 0)
(1.6743 1.78017e-08 0)
(1.6743 7.27525e-08 0)
(1.6743 1.38639e-07 0)
(1.6743 1.58288e-07 0)
(1.6743 1.39745e-07 0)
(1.6743 1.17364e-07 0)
(1.6743 8.54717e-08 0)
(1.6743 5.3074e-08 0)
(1.6743 6.2412e-08 0)
(1.6743 8.96217e-08 0)
(1.6743 9.02623e-08 0)
(1.6743 7.60161e-08 0)
(1.6743 6.2513e-08 0)
(1.6743 3.61176e-08 0)
(1.6743 1.007e-08 0)
(1.6743 4.90045e-09 0)
(1.6743 6.63635e-09 0)
(1.6743 -4.00891e-09 0)
(1.6743 -2.44721e-08 0)
(1.6743 -3.70386e-08 0)
(1.6743 -2.33617e-08 0)
(1.6743 1.40299e-08 0)
(1.6743 4.04258e-08 0)
(1.6743 5.91772e-08 0)
(1.6743 1.15742e-07 0)
(1.6743 1.94399e-07 0)
(1.6743 2.22139e-07 0)
(1.6743 1.71669e-07 0)
(1.6743 1.12071e-07 0)
(1.6743 7.41125e-08 0)
(1.6743 3.32106e-08 0)
(1.6743 4.24645e-08 0)
(1.6743 6.69947e-08 0)
(1.6743 2.54492e-08 0)
(1.6743 1.98211e-08 0)
(1.6743 8.22096e-08 0)
(1.6743 9.94495e-08 0)
(1.6743 7.89035e-08 0)
(1.6743 9.03198e-08 0)
(1.6743 1.23271e-07 0)
(1.6743 1.23264e-07 0)
(1.6743 5.36454e-08 0)
(1.6743 -9.00071e-08 0)
(1.6743 -1.65467e-07 0)
(1.6743 -1.14765e-07 0)
(1.6743 -1.26245e-07 0)
(1.6743 -1.36539e-07 0)
(1.6743 -4.11397e-07 0)
(1.6743 -5.17131e-07 0)
(1.6743 -4.51237e-07 0)
(2.56565 2.10934e-06 0)
(2.56564 2.94135e-06 0)
(2.56564 3.26118e-06 0)
(2.56564 3.7526e-06 0)
(2.56564 3.98165e-06 0)
(2.56564 3.78721e-06 0)
(2.56563 3.60246e-06 0)
(2.56563 2.91222e-06 0)
(2.56563 2.56627e-06 0)
(2.56562 2.08223e-06 0)
(2.56562 1.80597e-06 0)
(2.56562 1.446e-06 0)
(2.56562 1.29983e-06 0)
(2.56562 1.19608e-06 0)
(2.56562 1.17649e-06 0)
(2.56562 1.32186e-06 0)
(2.56561 1.22071e-06 0)
(2.56561 1.06855e-06 0)
(2.56561 1.09554e-06 0)
(2.56561 1.01763e-06 0)
(2.56561 7.84199e-07 0)
(2.56561 6.40752e-07 0)
(2.56561 5.86953e-07 0)
(2.56561 5.993e-07 0)
(2.56561 7.40226e-07 0)
(2.56561 8.07933e-07 0)
(2.56561 7.11846e-07 0)
(2.56561 6.49881e-07 0)
(2.56561 6.41589e-07 0)
(2.5656 5.67508e-07 0)
(2.5656 4.7165e-07 0)
(2.5656 3.87148e-07 0)
(2.5656 2.25445e-07 0)
(2.5656 2.03124e-08 0)
(2.5656 -1.39392e-07 0)
(2.5656 -2.41823e-07 0)
(2.5656 -2.36515e-07 0)
(2.5656 -1.5928e-07 0)
(2.5656 -1.79305e-07 0)
(2.5656 -2.94872e-07 0)
(2.5656 -3.4144e-07 0)
(2.5656 -2.92047e-07 0)
(2.5656 -2.12541e-07 0)
(2.5656 -1.35405e-07 0)
(2.5656 -1.05671e-07 0)
(2.5656 -1.28982e-07 0)
(2.5656 -1.73969e-07 0)
(2.5656 -2.52676e-07 0)
(2.5656 -3.35222e-07 0)
(2.5656 -3.39326e-07 0)
(2.5656 -2.87427e-07 0)
(2.5656 -2.56898e-07 0)
(2.5656 -2.46361e-07 0)
(2.5656 -2.03763e-07 0)
(2.5656 -1.0552e-07 0)
(2.5656 2.45522e-08 0)
(2.5656 1.52547e-07 0)
(2.5656 2.77567e-07 0)
(2.5656 4.11578e-07 0)
(2.5656 5.08046e-07 0)
(2.5656 5.08769e-07 0)
(2.5656 4.64532e-07 0)
(2.5656 4.75033e-07 0)
(2.5656 5.46491e-07 0)
(2.5656 5.99861e-07 0)
(2.5656 5.89858e-07 0)
(2.5656 5.1917e-07 0)
(2.5656 4.46439e-07 0)
(2.5656 4.28042e-07 0)
(2.5656 4.49887e-07 0)
(2.5656 4.65617e-07 0)
(2.5656 4.78187e-07 0)
(2.5656 5.0854e-07 0)
(2.5656 5.3079e-07 0)
(2.5656 5.25867e-07 0)
(2.5656 5.24949e-07 0)
(2.5656 5.28427e-07 0)
(2.5656 4.79666e-07 0)
(2.5656 3.52068e-07 0)
(2.5656 1.99854e-07 0)
(2.5656 9.16518e-08 0)
(2.5656 5.23033e-08 0)
(2.5656 6.42752e-08 0)
(2.5656 9.98508e-08 0)
(2.5656 1.19383e-07 0)
(2.5656 8.33413e-08 0)
(2.5656 2.52349e-08 0)
(2.5656 2.76247e-08 0)
(2.5656 8.16178e-08 0)
(2.5656 1.04128e-07 0)
(2.5656 9.58428e-08 0)
(2.5656 1.31677e-07 0)
(2.5656 2.11085e-07 0)
(2.5656 2.4863e-07 0)
(2.5656 2.14379e-07 0)
(2.5656 1.51668e-07 0)
(2.5656 1.03974e-07 0)
(2.5656 8.45679e-08 0)
(2.5656 8.62529e-08 0)
(2.5656 8.91547e-08 0)
(2.5656 9.35943e-08 0)
(2.5656 1.21389e-07 0)
(2.5656 1.73698e-07 0)
(2.5656 2.16552e-07 0)
(2.5656 2.29072e-07 0)
(2.5656 2.32393e-07 0)
(2.5656 2.26928e-07 0)
(2.5656 1.84824e-07 0)
(2.5656 1.36061e-07 0)
(2.5656 1.14415e-07 0)
(2.5656 9.0904e-08 0)
(2.5656 4.62538e-08 0)
(2.5656 6.00824e-09 0)
(2.5656 -1.87225e-08 0)
(2.5656 -2.52342e-08 0)
(2.5656 -1.69431e-08 0)
(2.5656 -1.04003e-08 0)
(2.5656 -1.73326e-08 0)
(2.5656 -2.8215e-08 0)
(2.5656 -3.23123e-08 0)
(2.5656 -2.47449e-08 0)
(2.5656 2.27576e-08 0)
(2.5656 1.07858e-07 0)
(2.5656 1.72335e-07 0)
(2.5656 2.01619e-07 0)
(2.5656 2.13353e-07 0)
(2.5656 2.07003e-07 0)
(2.5656 1.68899e-07 0)
(2.5656 1.35654e-07 0)
(2.5656 1.74565e-07 0)
(2.5656 2.0191e-07 0)
(2.5656 1.74605e-07 0)
(2.5656 1.84107e-07 0)
(2.5656 2.03939e-07 0)
(2.5656 2.20737e-07 0)
(2.5656 2.24277e-07 0)
(2.5656 1.68153e-07 0)
(2.5656 1.21364e-07 0)
(2.5656 9.34555e-08 0)
(2.5656 8.71338e-08 0)
(2.5656 6.40531e-08 0)
(2.5656 -9.00938e-09 0)
(2.5656 -1.11328e-07 0)
(2.5656 -2.51736e-07 0)
(2.5656 -2.35371e-07 0)
(2.5656 -2.18933e-07 0)
(2.5656 -3.00205e-07 0)
(2.5656 -4.64413e-07 0)
(2.5656 -7.87739e-07 0)
(2.5656 -6.3269e-07 0)
(3.29127 2.81238e-06 0)
(3.29126 3.94882e-06 0)
(3.29126 4.63114e-06 0)
(3.29126 5.53634e-06 0)
(3.29126 5.96884e-06 0)
(3.29126 6.42629e-06 0)
(3.29126 6.33852e-06 0)
(3.29126 5.90819e-06 0)
(3.29125 5.49523e-06 0)
(3.29125 4.87279e-06 0)
(3.29125 4.33116e-06 0)
(3.29125 3.9874e-06 0)
(3.29124 3.60691e-06 0)
(3.29124 3.27579e-06 0)
(3.29124 2.99019e-06 0)
(3.29124 2.78269e-06 0)
(3.29124 2.57144e-06 0)
(3.29124 2.36569e-06 0)
(3.29123 2.08596e-06 0)
(3.29123 1.81302e-06 0)
(3.29123 1.61676e-06 0)
(3.29123 1.48372e-06 0)
(3.29123 1.35981e-06 0)
(3.29123 1.22639e-06 0)
(3.29123 1.22796e-06 0)
(3.29123 1.30865e-06 0)
(3.29123 1.24143e-06 0)
(3.29123 1.0579e-06 0)
(3.29123 8.92729e-07 0)
(3.29123 7.4188e-07 0)
(3.29122 6.23377e-07 0)
(3.29122 5.49024e-07 0)
(3.29122 4.05649e-07 0)
(3.29122 2.00487e-07 0)
(3.29122 6.18309e-08 0)
(3.29122 -1.93911e-08 0)
(3.29122 -7.64407e-08 0)
(3.29122 -6.23064e-08 0)
(3.29122 -4.48227e-08 0)
(3.29122 -1.01723e-07 0)
(3.29122 -1.54579e-07 0)
(3.29122 -1.55926e-07 0)
(3.29122 -1.49477e-07 0)
(3.29122 -1.36427e-07 0)
(3.29122 -1.34125e-07 0)
(3.29122 -1.66669e-07 0)
(3.29122 -2.09943e-07 0)
(3.29122 -2.7336e-07 0)
(3.29122 -3.88737e-07 0)
(3.29122 -4.98366e-07 0)
(3.29122 -5.55278e-07 0)
(3.29122 -5.63374e-07 0)
(3.29122 -5.09026e-07 0)
(3.29122 -3.72538e-07 0)
(3.29122 -1.84872e-07 0)
(3.29122 -1.35183e-09 0)
(3.29122 1.26091e-07 0)
(3.29122 1.93661e-07 0)
(3.29122 2.64125e-07 0)
(3.29122 3.9958e-07 0)
(3.29122 5.37148e-07 0)
(3.29122 5.83515e-07 0)
(3.29122 5.46072e-07 0)
(3.29122 5.11457e-07 0)
(3.29122 5.23757e-07 0)
(3.29122 5.65377e-07 0)
(3.29122 5.91428e-07 0)
(3.29122 5.82177e-07 0)
(3.29122 5.7718e-07 0)
(3.29122 5.95022e-07 0)
(3.29122 5.98106e-07 0)
(3.29122 5.79739e-07 0)
(3.29122 5.80535e-07 0)
(3.29122 6.17186e-07 0)
(3.29122 6.4964e-07 0)
(3.29122 6.47441e-07 0)
(3.29122 6.10135e-07 0)
(3.29122 5.24706e-07 0)
(3.29122 3.82932e-07 0)
(3.29122 2.33576e-07 0)
(3.29122 1.27612e-07 0)
(3.29122 7.79403e-08 0)
(3.29122 5.11982e-08 0)
(3.29122 3.14609e-08 0)
(3.29122 3.88847e-08 0)
(3.29122 6.28065e-08 0)
(3.29122 6.27027e-08 0)
(3.29122 7.46587e-08 0)
(3.29122 1.449e-07 0)
(3.29122 2.27902e-07 0)
(3.29122 2.38264e-07 0)
(3.29122 2.06738e-07 0)
(3.29122 2.30835e-07 0)
(3.29122 3.15148e-07 0)
(3.29122 3.83889e-07 0)
(3.29122 3.81078e-07 0)
(3.29122 3.17509e-07 0)
(3.29122 2.30195e-07 0)
(3.29122 1.53109e-07 0)
(3.29122 1.0446e-07 0)
(3.29122 8.63931e-08 0)
(3.29122 9.53561e-08 0)
(3.29122 1.29421e-07 0)
(3.29122 1.64893e-07 0)
(3.29122 1.75953e-07 0)
(3.29122 1.80707e-07 0)
(3.29122 2.14686e-07 0)
(3.29122 2.48498e-07 0)
(3.29122 2.34217e-07 0)
(3.29122 1.93062e-07 0)
(3.29122 1.4624e-07 0)
(3.29122 9.08584e-08 0)
(3.29122 4.43168e-08 0)
(3.29122 2.06169e-08 0)
(3.29122 1.38877e-08 0)
(3.29122 5.94517e-09 0)
(3.29122 -1.18087e-08 0)
(3.29122 -2.52645e-08 0)
(3.29122 -2.1751e-08 0)
(3.29122 -2.01994e-08 0)
(3.29122 -4.16212e-08 0)
(3.29122 -3.07555e-08 0)
(3.29122 8.72633e-08 0)
(3.29122 2.39327e-07 0)
(3.29122 3.01895e-07 0)
(3.29122 2.83214e-07 0)
(3.29122 2.54148e-07 0)
(3.29122 2.24081e-07 0)
(3.29122 1.74896e-07 0)
(3.29122 1.71692e-07 0)
(3.29122 1.83295e-07 0)
(3.29122 1.21993e-07 0)
(3.29122 1.28834e-07 0)
(3.29122 2.32276e-07 0)
(3.29122 2.9494e-07 0)
(3.29122 3.04742e-07 0)
(3.29122 2.71081e-07 0)
(3.29122 2.26742e-07 0)
(3.29122 1.50279e-07 0)
(3.29122 3.78435e-08 0)
(3.29122 -5.92365e-08 0)
(3.29122 -1.07672e-07 0)
(3.29122 -1.59467e-07 0)
(3.29122 -3.49152e-07 0)
(3.29122 -4.19159e-07 0)
(3.29122 -3.48738e-07 0)
(3.29122 -4.52443e-07 0)
(3.29122 -5.03314e-07 0)
(3.29122 -8.25929e-07 0)
(3.29122 -7.0746e-07 0)
(3.85328 3.06268e-06 0)
(3.85328 3.89241e-06 0)
(3.85328 4.61966e-06 0)
(3.85328 5.50869e-06 0)
(3.85328 5.97185e-06 0)
(3.85328 6.9556e-06 0)
(3.85328 7.2246e-06 0)
(3.85328 7.5829e-06 0)
(3.85328 7.31688e-06 0)
(3.85328 7.06605e-06 0)
(3.85328 6.6566e-06 0)
(3.85328 6.39106e-06 0)
(3.85327 5.93144e-06 0)
(3.85327 5.56816e-06 0)
(3.85327 5.06156e-06 0)
(3.85327 4.39445e-06 0)
(3.85327 4.01875e-06 0)
(3.85327 3.78776e-06 0)
(3.85326 3.34908e-06 0)
(3.85326 2.94436e-06 0)
(3.85326 2.71204e-06 0)
(3.85326 2.47993e-06 0)
(3.85326 2.22223e-06 0)
(3.85326 1.96086e-06 0)
(3.85326 1.74759e-06 0)
(3.85326 1.68275e-06 0)
(3.85326 1.67098e-06 0)
(3.85326 1.56457e-06 0)
(3.85326 1.36457e-06 0)
(3.85325 1.11564e-06 0)
(3.85325 8.90688e-07 0)
(3.85325 7.73355e-07 0)
(3.85325 6.95858e-07 0)
(3.85325 5.69681e-07 0)
(3.85325 4.75046e-07 0)
(3.85325 4.37993e-07 0)
(3.85325 3.71222e-07 0)
(3.85325 3.04234e-07 0)
(3.85325 2.88436e-07 0)
(3.85325 2.69665e-07 0)
(3.85325 2.30859e-07 0)
(3.85325 1.69323e-07 0)
(3.85325 4.90662e-08 0)
(3.85325 -7.55525e-08 0)
(3.85325 -1.36781e-07 0)
(3.85325 -1.72795e-07 0)
(3.85325 -1.96196e-07 0)
(3.85325 -2.23599e-07 0)
(3.85325 -3.23128e-07 0)
(3.85325 -4.84709e-07 0)
(3.85325 -6.19921e-07 0)
(3.85325 -6.70122e-07 0)
(3.85325 -6.14599e-07 0)
(3.85325 -4.60442e-07 0)
(3.85325 -2.54887e-07 0)
(3.85325 -5.58316e-08 0)
(3.85325 9.59296e-08 0)
(3.85325 1.73114e-07 0)
(3.85325 2.09322e-07 0)
(3.85325 2.94696e-07 0)
(3.85325 4.40638e-07 0)
(3.85325 5.44684e-07 0)
(3.85325 5.44219e-07 0)
(3.85325 4.80955e-07 0)
(3.85325 4.54493e-07 0)
(3.85325 5.02934e-07 0)
(3.85325 5.79084e-07 0)
(3.85325 6.14552e-07 0)
(3.85325 6.11048e-07 0)
(3.85325 6.21725e-07 0)
(3.85325 6.55956e-07 0)
(3.85325 6.76064e-07 0)
(3.85325 6.75388e-07 0)
(3.85325 6.79396e-07 0)
(3.85325 6.82786e-07 0)
(3.85325 6.514e-07 0)
(3.85325 5.74908e-07 0)
(3.85325 4.56755e-07 0)
(3.85325 3.03811e-07 0)
(3.85325 1.47021e-07 0)
(3.85325 3.72696e-08 0)
(3.85325 -4.33137e-09 0)
(3.85325 -1.4627e-08 0)
(3.85325 -4.55651e-08 0)
(3.85325 -7.85639e-08 0)
(3.85325 -5.67095e-08 0)
(3.85325 5.15818e-09 0)
(3.85325 5.97066e-08 0)
(3.85325 1.15951e-07 0)
(3.85325 1.91213e-07 0)
(3.85325 2.35599e-07 0)
(3.85325 2.09594e-07 0)
(3.85325 1.75289e-07 0)
(3.85325 2.17635e-07 0)
(3.85325 3.11948e-07 0)
(3.85325 3.65934e-07 0)
(3.85325 3.37841e-07 0)
(3.85325 2.62446e-07 0)
(3.85325 1.89355e-07 0)
(3.85325 1.4267e-07 0)
(3.85325 1.13151e-07 0)
(3.85325 8.29342e-08 0)
(3.85325 5.70166e-08 0)
(3.85325 5.73069e-08 0)
(3.85325 8.02451e-08 0)
(3.85325 1.0743e-07 0)
(3.85325 1.44331e-07 0)
(3.85325 1.8591e-07 0)
(3.85325 1.92042e-07 0)
(3.85325 1.68693e-07 0)
(3.85325 1.45186e-07 0)
(3.85325 1.26898e-07 0)
(3.85325 1.09975e-07 0)
(3.85325 8.76827e-08 0)
(3.85325 6.10884e-08 0)
(3.85325 4.53206e-08 0)
(3.85325 3.96325e-08 0)
(3.85325 2.9029e-08 0)
(3.85325 1.19486e-08 0)
(3.85325 4.04118e-09 0)
(3.85325 -1.20386e-10 0)
(3.85325 5.16018e-10 0)
(3.85325 6.28602e-08 0)
(3.85325 1.7696e-07 0)
(3.85325 2.40475e-07 0)
(3.85325 2.47733e-07 0)
(3.85325 2.77574e-07 0)
(3.85325 3.2662e-07 0)
(3.85325 3.10433e-07 0)
(3.85325 2.4288e-07 0)
(3.85325 2.08502e-07 0)
(3.85325 1.79111e-07 0)
(3.85325 1.86702e-07 0)
(3.85325 2.43861e-07 0)
(3.85325 2.23726e-07 0)
(3.85325 1.94364e-07 0)
(3.85325 1.98258e-07 0)
(3.85325 2.01912e-07 0)
(3.85325 2.23708e-07 0)
(3.85325 1.55087e-07 0)
(3.85325 -1.64539e-08 0)
(3.85325 -1.49471e-07 0)
(3.85325 -1.64862e-07 0)
(3.85325 -1.83698e-07 0)
(3.85325 -2.67504e-07 0)
(3.85325 -3.67902e-07 0)
(3.85325 -3.8724e-07 0)
(3.85325 -4.53802e-07 0)
(3.85325 -5.51438e-07 0)
(3.85325 -5.87096e-07 0)
(4.25342 2.7112e-06 0)
(4.25342 3.14863e-06 0)
(4.25343 4.08215e-06 0)
(4.25342 4.459e-06 0)
(4.25343 5.46148e-06 0)
(4.25343 6.01795e-06 0)
(4.25343 6.74046e-06 0)
(4.25343 7.50837e-06 0)
(4.25343 7.797e-06 0)
(4.25343 8.06651e-06 0)
(4.25343 8.21248e-06 0)
(4.25343 7.88409e-06 0)
(4.25343 7.45626e-06 0)
(4.25343 7.18291e-06 0)
(4.25342 6.70156e-06 0)
(4.25342 5.97357e-06 0)
(4.25342 5.50538e-06 0)
(4.25342 5.20064e-06 0)
(4.25342 4.76956e-06 0)
(4.25342 4.28588e-06 0)
(4.25342 3.84089e-06 0)
(4.25342 3.41252e-06 0)
(4.25342 3.06562e-06 0)
(4.25341 2.79065e-06 0)
(4.25341 2.47818e-06 0)
(4.25341 2.235e-06 0)
(4.25341 2.14032e-06 0)
(4.25341 2.01744e-06 0)
(4.25341 1.78838e-06 0)
(4.25341 1.55483e-06 0)
(4.25341 1.37481e-06 0)
(4.25341 1.25712e-06 0)
(4.25341 1.17633e-06 0)
(4.25341 1.06584e-06 0)
(4.25341 9.60004e-07 0)
(4.25341 9.2252e-07 0)
(4.25341 8.65066e-07 0)
(4.25341 7.36492e-07 0)
(4.25341 6.3472e-07 0)
(4.25341 5.73254e-07 0)
(4.25341 4.83915e-07 0)
(4.25341 3.39334e-07 0)
(4.25341 1.42493e-07 0)
(4.25341 -2.39487e-08 0)
(4.25341 -6.1786e-08 0)
(4.25341 -3.03357e-08 0)
(4.25341 -2.7945e-08 0)
(4.25341 -8.94654e-08 0)
(4.25341 -2.35788e-07 0)
(4.25341 -4.2764e-07 0)
(4.25341 -5.38048e-07 0)
(4.25341 -4.98064e-07 0)
(4.25341 -3.59588e-07 0)
(4.25341 -2.27797e-07 0)
(4.25341 -1.67111e-07 0)
(4.25341 -1.46125e-07 0)
(4.25341 -6.54673e-08 0)
(4.25341 1.03521e-07 0)
(4.25341 2.73651e-07 0)
(4.25341 3.5448e-07 0)
(4.25341 3.66799e-07 0)
(4.25341 3.60097e-07 0)
(4.25341 3.57869e-07 0)
(4.25341 3.60426e-07 0)
(4.25341 3.68772e-07 0)
(4.25341 3.98648e-07 0)
(4.25341 4.49092e-07 0)
(4.25341 4.94542e-07 0)
(4.25341 5.23218e-07 0)
(4.25341 5.59958e-07 0)
(4.25341 6.22173e-07 0)
(4.25341 6.71673e-07 0)
(4.25341 6.75296e-07 0)
(4.25341 6.56374e-07 0)
(4.25341 6.38935e-07 0)
(4.25341 5.87442e-07 0)
(4.25341 4.65086e-07 0)
(4.25341 2.95862e-07 0)
(4.25341 1.39698e-07 0)
(4.25341 2.44815e-08 0)
(4.25341 -5.17428e-08 0)
(4.25341 -9.93014e-08 0)
(4.25341 -1.35863e-07 0)
(4.25341 -1.85103e-07 0)
(4.25341 -2.26829e-07 0)
(4.25341 -1.93389e-07 0)
(4.25341 -7.31416e-08 0)
(4.25341 3.77778e-08 0)
(4.25341 7.25069e-08 0)
(4.25341 7.85508e-08 0)
(4.25341 1.22505e-07 0)
(4.25341 1.73853e-07 0)
(4.25341 1.71459e-07 0)
(4.25341 1.43091e-07 0)
(4.25341 1.46505e-07 0)
(4.25341 1.75286e-07 0)
(4.25341 1.84288e-07 0)
(4.25341 1.61008e-07 0)
(4.25341 1.23577e-07 0)
(4.25341 8.01237e-08 0)
(4.25341 3.46585e-08 0)
(4.25341 -4.29443e-09 0)
(4.25341 -3.22464e-08 0)
(4.25341 -3.28905e-08 0)
(4.25341 -4.50211e-09 0)
(4.25341 1.8497e-08 0)
(4.25341 3.25402e-08 0)
(4.25341 6.3071e-08 0)
(4.25341 9.29019e-08 0)
(4.25341 9.36399e-08 0)
(4.25341 6.82013e-08 0)
(4.25341 3.89021e-08 0)
(4.25341 2.55026e-08 0)
(4.25341 2.5378e-08 0)
(4.25341 2.22624e-08 0)
(4.25341 2.40588e-08 0)
(4.25341 3.33697e-08 0)
(4.25341 3.16445e-08 0)
(4.25341 1.29557e-08 0)
(4.25341 1.31353e-08 0)
(4.25341 6.03776e-08 0)
(4.25341 1.00222e-07 0)
(4.25341 9.82284e-08 0)
(4.25341 1.18449e-07 0)
(4.25341 1.7036e-07 0)
(4.25341 1.92003e-07 0)
(4.25341 1.86145e-07 0)
(4.25341 1.95629e-07 0)
(4.25341 2.12194e-07 0)
(4.25341 2.03272e-07 0)
(4.25341 2.04836e-07 0)
(4.25341 2.06349e-07 0)
(4.25341 1.56257e-07 0)
(4.25341 1.27683e-07 0)
(4.25341 1.08573e-07 0)
(4.25341 6.9975e-08 0)
(4.25341 9.40654e-08 0)
(4.25341 1.49585e-07 0)
(4.25341 2.17436e-07 0)
(4.25341 2.1897e-07 0)
(4.25341 5.59707e-08 0)
(4.25341 -1.27827e-07 0)
(4.25341 -2.11327e-07 0)
(4.25341 -1.47444e-07 0)
(4.25341 -1.87824e-07 0)
(4.25341 -3.49911e-07 0)
(4.25341 -4.51774e-07 0)
(4.25341 -5.11646e-07 0)
(4.25341 -4.67263e-07 0)
(4.25341 -5.79531e-07 0)
(4.49298 2.62177e-06 0)
(4.49298 2.54491e-06 0)
(4.49298 3.27065e-06 0)
(4.49298 3.60171e-06 0)
(4.49298 4.49029e-06 0)
(4.49298 4.77433e-06 0)
(4.49298 5.90724e-06 0)
(4.49299 6.6159e-06 0)
(4.49299 7.21833e-06 0)
(4.49299 7.81658e-06 0)
(4.49299 8.21266e-06 0)
(4.49299 8.04013e-06 0)
(4.49299 7.92782e-06 0)
(4.49299 7.68952e-06 0)
(4.49299 7.25855e-06 0)
(4.49299 6.91067e-06 0)
(4.49299 6.5811e-06 0)
(4.49299 6.09581e-06 0)
(4.49298 5.55025e-06 0)
(4.49298 5.06001e-06 0)
(4.49298 4.62895e-06 0)
(4.49298 4.25772e-06 0)
(4.49298 3.93268e-06 0)
(4.49298 3.60801e-06 0)
(4.49298 3.25002e-06 0)
(4.49298 2.94447e-06 0)
(4.49298 2.74929e-06 0)
(4.49298 2.53474e-06 0)
(4.49298 2.27306e-06 0)
(4.49298 2.08646e-06 0)
(4.49298 1.96672e-06 0)
(4.49298 1.82357e-06 0)
(4.49298 1.65367e-06 0)
(4.49298 1.48692e-06 0)
(4.49298 1.35255e-06 0)
(4.49298 1.2948e-06 0)
(4.49298 1.25048e-06 0)
(4.49298 1.1067e-06 0)
(4.49298 9.07481e-07 0)
(4.49298 7.23473e-07 0)
(4.49298 5.38311e-07 0)
(4.49298 3.73285e-07 0)
(4.49298 2.39611e-07 0)
(4.49298 1.38836e-07 0)
(4.49298 1.07455e-07 0)
(4.49298 1.12843e-07 0)
(4.49298 6.2682e-08 0)
(4.49298 -5.03702e-08 0)
(4.49298 -1.78931e-07 0)
(4.49298 -2.93212e-07 0)
(4.49298 -3.49777e-07 0)
(4.49298 -3.15185e-07 0)
(4.49298 -2.0562e-07 0)
(4.49298 -8.61833e-08 0)
(4.49298 -3.68174e-08 0)
(4.49298 -6.78129e-08 0)
(4.49298 -9.66922e-08 0)
(4.49298 -1.85702e-08 0)
(4.49298 1.51752e-07 0)
(4.49298 3.03981e-07 0)
(4.49298 3.50557e-07 0)
(4.49298 3.16783e-07 0)
(4.49298 2.63872e-07 0)
(4.49298 2.46136e-07 0)
(4.49298 2.7372e-07 0)
(4.49298 3.33902e-07 0)
(4.49298 4.03347e-07 0)
(4.49298 4.53785e-07 0)
(4.49298 4.79059e-07 0)
(4.49298 4.942e-07 0)
(4.49298 5.29822e-07 0)
(4.49298 5.8068e-07 0)
(4.49298 5.91584e-07 0)
(4.49298 5.44262e-07 0)
(4.49298 4.82611e-07 0)
(4.49298 4.28965e-07 0)
(4.49298 3.37997e-07 0)
(4.49298 1.81498e-07 0)
(4.49298 6.14163e-09 0)
(4.49298 -1.25158e-07 0)
(4.49298 -2.05142e-07 0)
(4.49298 -2.469e-07 0)
(4.49298 -2.59457e-07 0)
(4.49298 -2.63827e-07 0)
(4.49298 -2.75871e-07 0)
(4.49298 -2.54121e-07 0)
(4.49298 -1.40075e-07 0)
(4.49298 1.90636e-08 0)
(4.49298 1.03196e-07 0)
(4.49298 7.40864e-08 0)
(4.49298 2.83295e-08 0)
(4.49298 4.56368e-08 0)
(4.49298 9.06207e-08 0)
(4.49298 1.03492e-07 0)
(4.49298 9.14296e-08 0)
(4.49298 7.92475e-08 0)
(4.49298 6.48932e-08 0)
(4.49298 4.23938e-08 0)
(4.49298 2.59365e-08 0)
(4.49298 9.6168e-09 0)
(4.49298 -2.59713e-08 0)
(4.49298 -6.50373e-08 0)
(4.49298 -8.60717e-08 0)
(4.49298 -8.04453e-08 0)
(4.49298 -4.8236e-08 0)
(4.49298 -3.20351e-08 0)
(4.49298 -5.56486e-08 0)
(4.49298 -8.14433e-08 0)
(4.49298 -6.85099e-08 0)
(4.49298 -2.90647e-08 0)
(4.49298 -3.10147e-09 0)
(4.49298 -1.56017e-08 0)
(4.49298 -4.01631e-08 0)
(4.49298 -2.68404e-08 0)
(4.49298 2.08936e-08 0)
(4.49298 6.092e-08 0)
(4.49298 7.06539e-08 0)
(4.49298 4.85381e-08 0)
(4.49298 1.17234e-08 0)
(4.49298 9.09991e-09 0)
(4.49298 9.91333e-08 0)
(4.49298 2.16075e-07 0)
(4.49298 2.02453e-07 0)
(4.49298 1.03534e-07 0)
(4.49298 8.77012e-08 0)
(4.49298 1.35692e-07 0)
(4.49298 1.36901e-07 0)
(4.49298 9.99354e-08 0)
(4.49298 9.63333e-08 0)
(4.49298 1.05127e-07 0)
(4.49298 9.28794e-08 0)
(4.49298 1.02372e-07 0)
(4.49298 6.1822e-08 0)
(4.49298 -1.8982e-08 0)
(4.49298 -4.38993e-08 0)
(4.49298 -5.92207e-08 0)
(4.49298 2.65984e-08 0)
(4.49298 9.63089e-08 0)
(4.49298 8.05029e-08 0)
(4.49298 1.12563e-07 0)
(4.49298 6.521e-08 0)
(4.49298 2.9077e-08 0)
(4.49298 -8.2555e-08 0)
(4.49298 -1.39495e-07 0)
(4.49298 -2.38609e-07 0)
(4.49298 -3.08081e-07 0)
(4.49298 -3.59857e-07 0)
(4.49298 -5.91887e-07 0)
(4.49298 -5.74585e-07 0)
(4.49298 -7.68353e-07 0)
(4.57274 1.67618e-06 0)
(4.57274 1.86395e-06 0)
(4.57275 2.08869e-06 0)
(4.57275 2.68059e-06 0)
(4.57275 3.00766e-06 0)
(4.57275 3.87062e-06 0)
(4.57275 4.75501e-06 0)
(4.57275 5.4128e-06 0)
(4.57275 6.21743e-06 0)
(4.57275 6.85437e-06 0)
(4.57275 7.0884e-06 0)
(4.57275 7.30564e-06 0)
(4.57275 7.51789e-06 0)
(4.57275 7.28494e-06 0)
(4.57275 6.98492e-06 0)
(4.57275 6.91531e-06 0)
(4.57275 6.69512e-06 0)
(4.57275 6.1913e-06 0)
(4.57275 5.70953e-06 0)
(4.57275 5.35699e-06 0)
(4.57275 5.05583e-06 0)
(4.57275 4.79417e-06 0)
(4.57275 4.49008e-06 0)
(4.57275 4.10996e-06 0)
(4.57275 3.73562e-06 0)
(4.57275 3.41302e-06 0)
(4.57275 3.14355e-06 0)
(4.57275 2.89651e-06 0)
(4.57275 2.67091e-06 0)
(4.57275 2.48913e-06 0)
(4.57275 2.30937e-06 0)
(4.57275 2.09052e-06 0)
(4.57275 1.86281e-06 0)
(4.57275 1.66859e-06 0)
(4.57275 1.50827e-06 0)
(4.57275 1.40174e-06 0)
(4.57275 1.34576e-06 0)
(4.57275 1.2371e-06 0)
(4.57275 1.03421e-06 0)
(4.57275 7.90759e-07 0)
(4.57275 5.43998e-07 0)
(4.57275 3.70162e-07 0)
(4.57275 3.18635e-07 0)
(4.57275 3.22189e-07 0)
(4.57275 3.10708e-07 0)
(4.57275 2.48822e-07 0)
(4.57275 1.13881e-07 0)
(4.57275 -3.54209e-08 0)
(4.57275 -1.01237e-07 0)
(4.57275 -6.85745e-08 0)
(4.57275 -1.63612e-08 0)
(4.57275 -2.85104e-08 0)
(4.57275 -9.73667e-08 0)
(4.57275 -1.39307e-07 0)
(4.57275 -1.07279e-07 0)
(4.57275 -4.52536e-08 0)
(4.57275 -2.09844e-08 0)
(4.57275 -2.80793e-08 0)
(4.57275 6.19132e-09 0)
(4.57275 1.15648e-07 0)
(4.57275 2.46936e-07 0)
(4.57275 3.35263e-07 0)
(4.57275 3.52223e-07 0)
(4.57275 3.17625e-07 0)
(4.57275 2.80445e-07 0)
(4.57275 2.95416e-07 0)
(4.57275 3.71774e-07 0)
(4.57275 4.62114e-07 0)
(4.57275 5.13689e-07 0)
(4.57275 5.06239e-07 0)
(4.57275 4.74085e-07 0)
(4.57275 4.78469e-07 0)
(4.57275 5.11781e-07 0)
(4.57275 4.88611e-07 0)
(4.57275 3.70419e-07 0)
(4.57275 2.15437e-07 0)
(4.57275 8.33755e-08 0)
(4.57275 -3.3869e-08 0)
(4.57275 -1.52501e-07 0)
(4.57275 -2.57242e-07 0)
(4.57275 -3.43703e-07 0)
(4.57275 -4.17041e-07 0)
(4.57275 -4.43717e-07 0)
(4.57275 -3.90422e-07 0)
(4.57275 -3.00072e-07 0)
(4.57275 -2.40307e-07 0)
(4.57275 -1.92263e-07 0)
(4.57275 -9.91165e-08 0)
(4.57275 7.39625e-09 0)
(4.57275 3.1984e-08 0)
(4.57275 -3.74945e-08 0)
(4.57275 -1.03495e-07 0)
(4.57275 -1.06212e-07 0)
(4.57275 -7.42051e-08 0)
(4.57275 -4.2815e-08 0)
(4.57275 -2.33333e-08 0)
(4.57275 -3.16434e-08 0)
(4.57275 -6.94523e-08 0)
(4.57275 -9.48994e-08 0)
(4.57275 -8.08974e-08 0)
(4.57275 -6.40077e-08 0)
(4.57275 -8.00627e-08 0)
(4.57275 -1.23411e-07 0)
(4.57275 -1.65513e-07 0)
(4.57275 -1.64953e-07 0)
(4.57275 -1.23658e-07 0)
(4.57275 -9.39796e-08 0)
(4.57275 -9.26179e-08 0)
(4.57275 -8.9099e-08 0)
(4.57275 -6.56021e-08 0)
(4.57275 -2.69412e-08 0)
(4.57275 8.02999e-09 0)
(4.57275 2.65921e-08 0)
(4.57275 4.29056e-08 0)
(4.57275 6.44913e-08 0)
(4.57275 7.74036e-08 0)
(4.57275 7.91664e-08 0)
(4.57275 8.84101e-08 0)
(4.57275 1.03343e-07 0)
(4.57275 1.00088e-07 0)
(4.57275 1.09687e-07 0)
(4.57275 1.79405e-07 0)
(4.57275 2.1394e-07 0)
(4.57275 1.33923e-07 0)
(4.57275 5.80879e-08 0)
(4.57275 5.79338e-08 0)
(4.57275 9.2327e-08 0)
(4.57275 1.21582e-07 0)
(4.57275 1.03742e-07 0)
(4.57275 1.75227e-08 0)
(4.57275 -1.01309e-07 0)
(4.57276 -1.28672e-07 0)
(4.57276 -1.01119e-07 0)
(4.57276 -1.25886e-07 0)
(4.57276 -1.09491e-07 0)
(4.57276 -6.18459e-08 0)
(4.57276 -1.76636e-08 0)
(4.57276 -3.33074e-08 0)
(4.57276 -1.06916e-07 0)
(4.57276 -7.65837e-08 0)
(4.57276 -5.05808e-08 0)
(4.57276 -6.16683e-08 0)
(4.57276 -3.87302e-08 0)
(4.57276 -1.52716e-07 0)
(4.57276 -1.54079e-07 0)
(4.57276 -2.89206e-07 0)
(4.57276 -3.06641e-07 0)
(4.57276 -4.69895e-07 0)
(4.57276 -6.18322e-07 0)
(4.57276 -8.16373e-07 0)
(4.49299 8.75982e-07 0)
(4.49299 1.02437e-06 0)
(4.49299 1.10605e-06 0)
(4.49299 1.7027e-06 0)
(4.49299 1.9222e-06 0)