/*--------------------------------*- C++ -*----------------------------------*\
| =========                 |                                                 |
| \\      /  F ield         | OpenFOAM: The Open Source CFD Toolbox           |
|  \\    /   O peration     | Version:  2406                                  |
|   \\  /    A nd           | Website:  www.openfoam.com                      |
|    \\/     M anipulation  |                                                 |
\*---------------------------------------------------------------------------*/
FoamFile
{
    version     2.0;
    format      ascii;
    arch        "LSB;label=32;scalar=64";
    class       surfaceScalarField;
    location    "0.4";
    object      phi;
}
// * * * * * * * * * * * * * * * * * * * * * * * * * * * * * * * * * * * * * //

dimensions      [0 3 -1 0 0 0 0];

oriented        oriented;

internalField   nonuniform List<scalar> 
4335
(
3.12981e-05
2.42156e-12
3.12981e-05
-1.09623e-11
3.1298e-05
-1.89902e-11
3.12981e-05
-2.55823e-11
3.12981e-05
-3.82249e-11
3.12981e-05
-3.03829e-11
3.12981e-05
-3.17208e-11
3.12982e-05
-4.19291e-11
3.12982e-05
-3.39932e-11
3.12982e-05
-1.11305e-11
3.12982e-05
-3.23519e-13
3.12982e-05
-1.12585e-11
3.12982e-05
-2.23986e-11
3.12982e-05
-1.51547e-11
3.12982e-05
3.88839e-12
3.12983e-05
6.52788e-12
3.12983e-05
-4.56098e-12
3.12982e-05
-5.64154e-12
3.12982e-05
2.99678e-12
3.12982e-05
1.18606e-11
3.12982e-05
1.52157e-11
3.12982e-05
9.27772e-12
3.12982e-05
1.4653e-12
3.12982e-05
-2.04695e-12
3.12982e-05
-5.17715e-12
3.12982e-05
-5.20562e-12
3.12982e-05
1.43037e-13
3.12982e-05
4.94315e-12
3.12982e-05
7.02161e-12
3.12982e-05
6.27746e-12
3.12982e-05
1.97144e-12
3.12982e-05
-1.85987e-12
3.12982e-05
-2.91356e-12
3.12981e-05
-1.95508e-12
3.12981e-05
5.66221e-13
3.12981e-05
1.3091e-12
3.12982e-05
-6.56555e-13
3.12981e-05
-7.64564e-14
3.12981e-05
2.76038e-12
3.12981e-05
3.54491e-12
3.12981e-05
1.83177e-12
3.12981e-05
-1.17383e-12
3.12981e-05
-2.45146e-12
3.12981e-05
1.04538e-12
3.12981e-05
6.59571e-12
3.12981e-05
8.32613e-12
3.12981e-05
4.02091e-12
3.12981e-05
-3.53539e-12
3.12981e-05
-9.145e-12
3.12981e-05
-9.04962e-12
3.12981e-05
-6.04333e-12
3.12981e-05
-5.72345e-12
3.12981e-05
-1.01285e-11
3.12981e-05
-1.47529e-11
3.12981e-05
-1.34785e-11
3.12981e-05
-6.43506e-12
3.12981e-05
-6.70419e-13
3.12981e-05
-1.89494e-12
3.12981e-05
-8.27049e-12
3.12981e-05
-1.26779e-11
3.12981e-05
-1.05226e-11
3.12981e-05
-3.81633e-12
3.12982e-05
1.47263e-12
3.12982e-05
1.64268e-12
3.12982e-05
-1.1094e-12
3.12982e-05
-1.3538e-12
3.12982e-05
3.76625e-12
3.12982e-05
1.05722e-11
3.12982e-05
1.12933e-11
3.12982e-05
3.51736e-12
3.12982e-05
-6.41696e-12
3.12982e-05
-1.02141e-11
3.12982e-05
-6.08281e-12
3.12982e-05
-4.04504e-13
3.12982e-05
-6.10745e-13
3.12982e-05
-6.65311e-12
3.12982e-05
-1.06839e-11
3.12982e-05
-5.92568e-12
3.12982e-05
5.60566e-12
3.12982e-05
1.48963e-11
3.12982e-05
1.62241e-11
3.12982e-05
1.17346e-11
3.12982e-05
8.68376e-12
3.12982e-05
1.1389e-11
3.12982e-05
1.62805e-11
3.12982e-05
1.65585e-11
3.12981e-05
9.02787e-12
3.12981e-05
-1.24564e-12
3.12981e-05
-6.77188e-12
3.12981e-05
-5.12094e-12
3.12981e-05
-1.95225e-12
3.12981e-05
-4.19893e-12
3.12982e-05
-1.20311e-11
3.12982e-05
-1.81554e-11
3.12982e-05
-1.6827e-11
3.12982e-05
-9.76651e-12
3.12982e-05
-4.24134e-12
3.12982e-05
-5.166e-12
3.12982e-05
-1.09394e-11
3.12982e-05
-1.48206e-11
3.12982e-05
-1.22546e-11
3.12982e-05
-5.39924e-12
3.12982e-05
-1.94905e-12
3.12982e-05
-6.32723e-12
3.12982e-05
-1.43484e-11
3.12982e-05
-1.75898e-11
3.12982e-05
-1.306e-11
3.12982e-05
-6.30714e-12
3.12982e-05
-4.12155e-12
3.12983e-05
-7.54527e-12
3.12983e-05
-1.12621e-11
3.12983e-05
-9.67697e-12
3.12982e-05
-2.96944e-12
3.12982e-05
2.773e-12
3.12982e-05
2.91317e-12
3.12982e-05
-1.0799e-12
3.12982e-05
-3.53599e-12
3.12982e-05
-1.1035e-12
3.12982e-05
4.38107e-12
3.12982e-05
7.66489e-12
3.12982e-05
5.04215e-12
3.12982e-05
-8.40855e-13
3.12981e-05
-3.79931e-12
3.12981e-05
-1.03132e-12
3.12981e-05
3.82329e-12
3.12982e-05
5.49708e-12
3.12982e-05
3.12685e-12
3.12982e-05
4.40916e-13
3.12982e-05
3.81561e-13
3.12982e-05
2.89756e-12
3.12981e-05
6.54445e-12
3.12981e-05
7.82101e-12
3.12981e-05
4.99982e-12
3.12981e-05
2.35779e-12
3.12981e-05
3.31272e-12
3.12981e-05
5.40853e-12
3.12981e-05
5.68713e-12
3.12981e-05
4.06748e-12
3.12981e-05
2.36657e-12
3.12981e-05
2.28909e-12
3.12981e-05
2.76585e-12
3.12981e-05
1.22814e-12
3.12981e-05
-1.85546e-12
3.12981e-05
-3.43313e-12
3.12981e-05
-4.34191e-12
3.12982e-05
-5.75594e-12
3.12982e-05
-4.9315e-12
3.12982e-05
-4.5457e-12
3.12982e-05
-5.24654e-12
-6.86391e-12
8.54232e-05
5.14244e-11
8.54232e-05
3.12378e-11
8.54232e-05
2.13452e-11
8.54231e-05
3.79701e-11
8.54232e-05
2.39335e-11
8.54231e-05
-1.97585e-11
8.54231e-05
-1.75448e-11
8.54232e-05
-3.74132e-12
8.54232e-05
-1.15848e-11
8.54232e-05
-3.62389e-11
8.54232e-05
-4.79873e-11
8.54232e-05
-4.16951e-11
8.54232e-05
-1.65856e-11
8.54232e-05
-1.70357e-12
8.54232e-05
-6.63525e-13
8.54232e-05
1.2329e-12
8.54232e-05
6.87182e-12
8.54232e-05
1.71248e-11
8.54232e-05
2.31083e-11
8.54232e-05
2.07574e-11
8.54232e-05
2.11262e-11
8.54231e-05
2.43141e-11
8.54231e-05
2.20644e-11
8.54231e-05
1.86455e-11
8.54231e-05
1.66717e-11
8.54231e-05
1.34573e-11
8.54231e-05
1.23587e-11
8.54231e-05
1.24485e-11
8.54231e-05
9.21494e-12
8.54231e-05
3.7569e-12
8.54231e-05
-2.72492e-12
8.54231e-05
-7.4318e-12
8.5423e-05
-6.64969e-12
8.5423e-05
-1.45684e-12
8.5423e-05
6.24805e-12
8.5423e-05
1.33204e-11
8.54231e-05
1.38909e-11
8.54231e-05
1.01711e-11
8.5423e-05
8.92402e-12
8.5423e-05
1.20083e-11
8.5423e-05
1.64784e-11
8.5423e-05
1.80621e-11
8.5423e-05
1.38305e-11
8.5423e-05
6.22231e-12
8.5423e-05
6.52212e-13
8.5423e-05
-1.31416e-12
8.5423e-05
-2.35493e-12
8.5423e-05
-6.02521e-12
8.5423e-05
-1.37646e-11
8.5423e-05
-2.15699e-11
8.5423e-05
-2.44753e-11
8.5423e-05
-2.28503e-11
8.5423e-05
-2.18851e-11
8.5423e-05
-2.52048e-11
8.5423e-05
-3.01098e-11
8.5423e-05
-2.9968e-11
8.5423e-05
-2.23394e-11
8.5423e-05
-1.22273e-11
8.5423e-05
-6.69599e-12
8.54231e-05
-7.11837e-12
8.54231e-05
-7.86832e-12
8.54231e-05
-2.75865e-12
8.54231e-05
8.27187e-12
8.54231e-05
1.92236e-11
8.54231e-05
2.31467e-11
8.54231e-05
1.85614e-11
8.54231e-05
1.1268e-11
8.54231e-05
8.31271e-12
8.5423e-05
1.02486e-11
8.5423e-05
1.11203e-11
8.5423e-05
5.71047e-12
8.54231e-05
-3.98542e-12
8.54231e-05
-1.02947e-11
8.54231e-05
-8.0185e-12
8.54231e-05
1.58917e-15
8.54231e-05
5.59797e-12
8.54231e-05
4.39956e-12
8.54231e-05
2.3268e-13
8.54231e-05
3.44921e-13
8.54231e-05
6.04855e-12
8.54231e-05
1.1517e-11
8.54231e-05
9.53332e-12
8.54231e-05
3.1657e-13
8.54231e-05
-8.54869e-12
8.5423e-05
-9.99969e-12
8.5423e-05
-4.13459e-12
8.5423e-05
1.62984e-12
8.5423e-05
4.01534e-13
8.5423e-05
-7.00929e-12
8.5423e-05
-1.29346e-11
8.5423e-05
-1.13596e-11
8.5423e-05
-4.88173e-12
8.5423e-05
-1.85828e-12
8.5423e-05
-6.75023e-12
8.54231e-05
-1.51899e-11
8.54231e-05
-1.91506e-11
8.54231e-05
-1.58011e-11
8.54231e-05
-9.85972e-12
8.54231e-05
-8.72508e-12
8.54231e-05
-1.40773e-11
8.54231e-05
-2.11067e-11
8.54231e-05
-2.1669e-11
8.54231e-05
-1.37273e-11
8.54231e-05
-3.77029e-12
8.54231e-05
5.21188e-13
8.54231e-05
-1.71667e-12
8.54231e-05
-4.06825e-12
8.54231e-05
-1.21341e-12
8.54231e-05
4.96651e-12
8.54231e-05
7.96552e-12
8.54231e-05
4.57e-12
8.54231e-05
-2.13256e-12
8.54231e-05
-4.59481e-12
8.54231e-05
-3.81628e-15
8.54231e-05
6.97552e-12
8.54231e-05
1.00935e-11
8.54231e-05
8.57066e-12
8.54231e-05
5.89719e-12
8.54231e-05
6.77274e-12
8.5423e-05
1.23876e-11
8.5423e-05
1.8446e-11
8.5423e-05
1.93853e-11
8.5423e-05
1.49217e-11
8.5423e-05
1.04092e-11
8.5423e-05
1.05274e-11
8.5423e-05
1.42265e-11
8.5423e-05
1.65932e-11
8.5423e-05
1.55539e-11
8.5423e-05
1.23837e-11
8.5423e-05
8.46775e-12
8.5423e-05
6.37626e-12
8.5423e-05
7.03514e-12
8.5423e-05
5.82094e-12
8.5423e-05
5.79001e-13
8.5423e-05
-3.61939e-12
8.5423e-05
-3.17688e-12
8.5423e-05
4.07807e-13
8.5423e-05
3.83025e-12
8.5423e-05
3.84908e-12
8.5423e-05
1.05275e-12
8.5423e-05
-1.16207e-12
8.5423e-05
-1.40337e-12
8.5423e-05
-1.08031e-12
8.5423e-05
-2.27277e-13
8.5423e-05
-5.03147e-13
8.5423e-05
-4.31707e-12
8.5423e-05
-9.48434e-12
8.54231e-05
-1.56875e-11
8.54231e-05
-2.4498e-11
-2.65786e-11
0.000131126
8.04073e-11
0.000131126
9.59306e-11
0.000131126
8.52538e-11
0.000131125
6.09317e-11
0.000131125
7.62454e-11
0.000131125
5.23476e-11
0.000131125
3.35657e-11
0.000131125
1.89386e-11
0.000131125
2.217e-12
0.000131125
-1.13869e-11
0.000131125
8.27824e-13
0.000131125
1.19921e-11
0.000131125
1.17194e-11
0.000131125
1.3254e-11
0.000131125
1.82204e-11
0.000131125
2.40523e-11
0.000131125
2.52276e-11
0.000131125
2.43085e-11
0.000131125
2.55344e-11
0.000131125
2.5975e-11
0.000131125
2.59729e-11
0.000131125
2.80787e-11
0.000131125
2.7568e-11
0.000131125
2.43416e-11
0.000131125
2.32693e-11
0.000131125
2.23484e-11
0.000131125
1.99434e-11
0.000131125
1.66979e-11
0.000131125
1.19805e-11
0.000131125
7.87758e-12
0.000131125
4.54874e-12
0.000131125
1.01083e-12
0.000131125
-1.14572e-12
0.000131125
-1.14921e-12
0.000131125
1.25753e-12
0.000131125
7.2109e-12
0.000131125
1.34311e-11
0.000131125
1.51157e-11
0.000131125
1.23403e-11
0.000131125
9.04785e-12
0.000131125
8.26269e-12
0.000131125
9.02689e-12
0.000131125
8.09072e-12
0.000131125
3.91432e-12
0.000131125
-5.19295e-13
0.000131125
-2.28259e-12
0.000131125
-1.49099e-12
0.000131125
-7.57615e-13
0.000131125
-3.58362e-12
0.000131125
-1.07292e-11
0.000131125
-1.92936e-11
0.000131125
-2.53601e-11
0.000131125
-2.78895e-11
0.000131125
-2.91092e-11
0.000131125
-3.13039e-11
0.000131125
-3.36851e-11
0.000131125
-3.28116e-11
0.000131125
-2.63304e-11
0.000131125
-1.59362e-11
0.000131125
-6.43874e-12
0.000131125
-8.66755e-13
0.000131125
2.75081e-12
0.000131125
6.72667e-12
0.000131125
1.34889e-11
0.000131125
2.09378e-11
0.000131125
2.43795e-11
0.000131125
2.13762e-11
0.000131125
1.4762e-11
0.000131125
1.00924e-11
0.000131125
1.01443e-11
0.000131125
1.26209e-11
0.000131125
1.28048e-11
0.000131125
9.30686e-12
0.000131125
5.90323e-12
0.000131125
7.28418e-12
0.000131125
1.33663e-11
0.000131125
1.8723e-11
0.000131125
1.79984e-11
0.000131125
1.17131e-11
0.000131125
5.22621e-12
0.000131125
2.44807e-12
0.000131125
1.75711e-12
0.000131125
-1.18444e-12
0.000131125
-7.87468e-12
0.000131125
-1.49163e-11
0.000131125
-1.71395e-11
0.000131125
-1.33218e-11
0.000131125
-7.23455e-12
0.000131125
-4.60205e-12
0.000131125
-6.88347e-12
0.000131125
-9.89936e-12
0.000131125
-8.43128e-12
0.000131125
-2.27092e-12
0.000131125
3.07129e-12
0.000131125
2.44726e-12
0.000131125
-3.76105e-12
0.000131125
-1.1009e-11
0.000131125
-1.5531e-11
0.000131125
-1.78946e-11
0.000131125
-2.05711e-11
0.000131125
-2.56798e-11
0.000131125
-3.04094e-11
0.000131125
-3.00363e-11
0.000131125
-2.33281e-11
0.000131125
-1.4198e-11
0.000131125
-8.49085e-12
0.000131125
-8.30313e-12
0.000131125
-1.04819e-11
0.000131125
-1.02534e-11
0.000131125
-6.38765e-12
0.000131125
-2.37318e-12
0.000131125
-2.86889e-12
0.000131125
-7.61145e-12
0.000131125
-1.1369e-11
0.000131125
-1.08004e-11
0.000131125
-7.25046e-12
0.000131125
-3.54481e-12
0.000131125
-1.39607e-12
0.000131125
-4.53984e-13
0.000131125
1.6774e-12
0.000131125
6.70808e-12
0.000131125
1.30168e-11
0.000131125
1.71738e-11
0.000131125
1.81549e-11
0.000131125
1.90088e-11
0.000131125
2.23002e-11
0.000131125
2.59128e-11
0.000131125
2.63435e-11
0.000131125
2.34996e-11
0.000131125
1.82661e-11
0.000131125
1.21084e-11
0.000131125
9.55599e-12
0.000131125
1.14914e-11
0.000131125
1.28412e-11
0.000131125
1.09348e-11
0.000131125
7.00034e-12
0.000131125
3.10901e-12
0.000131125
1.82351e-12
0.000131125
3.30577e-12
0.000131125
5.49357e-12
0.000131125
7.14026e-12
0.000131125
8.04236e-12
0.000131125
7.34706e-12
0.000131125
4.08313e-12
0.000131125
-3.85158e-13
0.000131125
-6.68248e-12
0.000131125
-1.44936e-11
0.000131125
-2.2429e-11
0.000131125
-3.62847e-11
-4.48938e-11
0.00016845
1.55373e-10
0.00016845
1.47173e-10
0.00016845
1.54726e-10
0.00016845
1.43621e-10
0.00016845
1.43241e-10
0.00016845
1.29195e-10
0.000168449
1.10754e-10
0.000168449
9.8655e-11
0.000168449
9.79327e-11
0.000168449
9.20497e-11
0.000168449
8.07993e-11
0.000168449
6.81162e-11
0.000168449
5.91355e-11
0.000168449
6.1572e-11
0.000168449
6.80381e-11
0.000168449
6.89423e-11
0.000168449
6.29471e-11
0.000168449
5.36918e-11
0.000168449
4.78956e-11
0.000168449
4.69263e-11
0.000168449
4.57667e-11
0.000168449
4.29575e-11
0.000168449
3.87006e-11
0.000168449
3.34147e-11
0.000168449
3.01156e-11
0.000168449
2.82756e-11
0.000168449
2.48657e-11
0.000168449
1.99652e-11
0.000168449
1.50692e-11
0.000168449
1.17301e-11
0.000168449
1.0148e-11
0.000168449
9.28906e-12
0.000168449
8.97038e-12
0.000168449
9.7444e-12
0.000168449
1.13828e-11
0.000168449
1.32212e-11
0.000168449
1.4159e-11
0.000168449
1.26812e-11
0.000168449
7.92437e-12
0.000168449
1.31046e-12
0.000168449
-4.02904e-12
0.000168449
-5.93894e-12
0.000168449
-5.19049e-12
0.000168449
-5.28286e-12
0.000168449
-8.31638e-12
0.000168449
-1.2956e-11
0.000168449
-1.55184e-11
0.000168449
-1.3852e-11
0.000168449
-9.55117e-12
0.000168449
-6.76735e-12
0.000168449
-8.93569e-12
0.000168449
-1.59331e-11
0.000168449
-2.36464e-11
0.000168449
-2.78239e-11
0.000168449
-2.77676e-11
0.000168449
-2.5994e-11
0.000168449
-2.51911e-11
0.000168449
-2.42865e-11
0.000168449
-1.96568e-11
0.000168449
-1.06413e-11
0.000168449
-1.32673e-12
0.000168449
5.16878e-12
0.000168449
7.4882e-12
0.000168449
8.48262e-12
0.000168449
1.08307e-11
0.000168449
1.39384e-11
0.000168449
1.47321e-11
0.000168449
1.16724e-11
0.000168449
6.97599e-12
0.000168449
4.86442e-12
0.000168449
7.32991e-12
0.000168449
1.18656e-11
0.000168449
1.38425e-11
0.000168449
1.14576e-11
0.000168449
7.89043e-12
0.000168449
7.8212e-12
0.000168449
1.22864e-11
0.000168449
1.69722e-11
0.000168449
1.66087e-11
0.000168449
1.03063e-11
0.000168449
2.07769e-12
0.000168449
-3.67208e-12
0.000168449
-6.18366e-12
0.000168449
-8.15485e-12
0.000168449
-1.1855e-11
0.000168449
-1.63341e-11
0.000168449
-1.92491e-11
0.000168449
-1.80509e-11
0.000168449
-1.38502e-11
0.000168449
-1.0013e-11
0.000168449
-8.64627e-12
0.000168449
-8.05088e-12
0.000168449
-5.08848e-12
0.000168449
4.77248e-13
0.000168449
5.06877e-12
0.000168449
4.99427e-12
0.000168449
4.78081e-14
0.000168449
-6.41016e-12
0.000168449
-1.09205e-11
0.000168449
-1.29405e-11
0.000168449
-1.47341e-11
0.000168449
-1.80433e-11
0.000168449
-2.11907e-11
0.000168449
-2.11784e-11
0.000168449
-1.61251e-11
0.000168449
-7.91769e-12
0.000168449
-1.05385e-12
0.000168449
1.11353e-12
0.000168449
-5.25524e-13
0.000168449
-2.05254e-12
0.000168449
-6.43381e-13
0.000168449
1.79763e-12
0.000168449
1.4151e-12
0.000168449
-1.72204e-12
0.000168449
-4.21373e-12
0.000168449
-3.99952e-12
0.000168449
-2.12101e-12
0.000168449
-4.49782e-13
0.000168449
-1.83894e-13
0.000168449
-6.57483e-13
0.000168449
4.95808e-13
0.000168449
4.68307e-12
0.000168449
1.01563e-11
0.000168449
1.3577e-11
0.000168449
1.40376e-11
0.000168449
1.45354e-11
0.000168449
1.68685e-11
0.000168449
1.85363e-11
0.000168449
1.83702e-11
0.000168449
1.74149e-11
0.000168449
1.49694e-11
0.000168449
1.09889e-11
0.000168449
7.84648e-12
0.000168449
6.03105e-12
0.000168449
5.32802e-12
0.000168449
5.45527e-12
0.000168449
4.50175e-12
0.000168449
2.84798e-12
0.000168449
2.5968e-12
0.000168449
3.48556e-12
0.000168449
4.62273e-12
0.000168449
5.20234e-12
0.000168449
4.30021e-12
0.000168449
1.71964e-12
0.000168449
-7.1478e-13
0.000168449
-6.32489e-12
0.000168449
-1.45913e-11
0.000168449
-2.49349e-11
0.000168449
-3.97804e-11
-4.99287e-11
0.000197436
1.6894e-10
0.000197436
1.51008e-10
0.000197435
1.5745e-10
0.000197435
1.84588e-10
0.000197435
1.94042e-10
0.000197435
2.09616e-10
0.000197435
2.16375e-10
0.000197435
2.11964e-10
0.000197435
2.05763e-10
0.000197435
1.93791e-10
0.000197435
1.76675e-10
0.000197435
1.684e-10
0.000197435
1.59048e-10
0.000197435
1.43436e-10
0.000197435
1.28475e-10
0.000197434
1.17264e-10
0.000197434
1.09429e-10
0.000197434
1.02014e-10
0.000197434
9.18662e-11
0.000197434
8.1874e-11
0.000197434
7.44435e-11
0.000197434
6.76497e-11
0.000197434
6.06788e-11
0.000197434
5.47909e-11
0.000197434
5.19174e-11
0.000197434
5.30305e-11
0.000197434
5.48483e-11
0.000197434
5.16222e-11
0.000197434
4.2555e-11
0.000197434
3.19268e-11
0.000197434
2.2937e-11
0.000197434
1.70016e-11
0.000197434
1.43925e-11
0.000197434
1.36676e-11
0.000197434
1.39121e-11
0.000197434
1.42011e-11
0.000197434
1.2741e-11
0.000197434
9.88784e-12
0.000197434
6.24337e-12
0.000197434
3.89741e-13
0.000197434
-7.69523e-12
0.000197434
-1.47413e-11
0.000197434
-1.75171e-11
0.000197434
-1.53602e-11
0.000197434
-1.07646e-11
0.000197434
-6.99855e-12
0.000197434
-4.36561e-12
0.000197434
-1.78669e-12
0.000197434
-3.5932e-13
0.000197434
-2.25658e-12
0.000197434
-8.28968e-12
0.000197434
-1.6626e-11
0.000197434
-2.38462e-11
0.000197434
-2.71948e-11
0.000197434
-2.60009e-11
0.000197434
-2.19592e-11
0.000197434
-1.80448e-11
0.000197434
-1.60723e-11
0.000197434
-1.40326e-11
0.000197434
-8.86091e-12
0.000197434
-1.47281e-12
0.000197434
4.60764e-12
0.000197434
7.06605e-12
0.000197434
7.17019e-12
0.000197434
8.14142e-12
0.000197434
1.14602e-11
0.000197434
1.54066e-11
0.000197434
1.70753e-11
0.000197434
1.53662e-11
0.000197434
1.19397e-11
0.000197434
1.0079e-11
0.000197434
1.1871e-11
0.000197434
1.6103e-11
0.000197434
1.93471e-11
0.000197434
1.92301e-11
0.000197434
1.68958e-11
0.000197434
1.4998e-11
0.000197434
1.41136e-11
0.000197434
1.1723e-11
0.000197434
5.55721e-12
0.000197434
-2.63076e-12
0.000197434
-8.38693e-12
0.000197434
-9.21935e-12
0.000197434
-6.93873e-12
0.000197434
-5.2276e-12
0.000197434
-6.56938e-12
0.000197434
-1.00722e-11
0.000197434
-1.21924e-11
0.000197434
-1.02041e-11
0.000197434
-4.65831e-12
0.000197434
8.97902e-13
0.000197434
3.5762e-12
0.000197434
4.13045e-12
0.000197434
5.33932e-12
0.000197434
7.61568e-12
0.000197434
7.87101e-12
0.000197434
3.00055e-12
0.000197434
-6.36652e-12
0.000197434
-1.58579e-11
0.000197434
-2.1628e-11
0.000197434
-2.29924e-11
0.000197434
-2.23797e-11
0.000197434
-2.15882e-11
0.000197434
-2.06543e-11
0.000197434
-1.82989e-11
0.000197434
-1.38609e-11
0.000197434
-8.51238e-12
0.000197434
-4.8882e-12
0.000197434
-4.71258e-12
0.000197434
-6.46159e-12
0.000197434
-6.30954e-12
0.000197434
-2.65995e-12
0.000197434
1.30637e-12
0.000197434
1.95159e-12
0.000197434
-1.78252e-13
0.000197434
-2.17546e-12
0.000197434
-2.40928e-12
0.000197434
-1.08665e-12
0.000197434
5.98129e-13
0.000197434
1.341e-12
0.000197434
1.10517e-12
0.000197434
1.88939e-12
0.000197434
5.50982e-12
0.000197434
1.04933e-11
0.000197434
1.30414e-11
0.000197434
1.23437e-11
0.000197434
1.15721e-11
0.000197434
1.28902e-11
0.000197434
1.44956e-11
0.000197434
1.49917e-11
0.000197434
1.41966e-11
0.000197434
1.23226e-11
0.000197434
1.016e-11
0.000197434
7.24576e-12
0.000197434
3.35955e-12
0.000197434
6.09724e-13
0.000197434
-6.27507e-13
0.000197434
-1.41446e-12
0.000197434
-1.14134e-12
0.000197434
2.91134e-13
0.000197434
3.63398e-12
0.000197434
7.23936e-12
0.000197434
7.08327e-12
0.000197434
2.80009e-12
0.000197434
-3.56994e-12
0.000197434
-1.11721e-11
0.000197434
-2.22599e-11
0.000197434
-3.28195e-11
0.000197434
-4.71321e-11
-5.24275e-11
0.000218115
1.29354e-10
0.000218115
1.7737e-10
0.000218115
2.22776e-10
0.000218115
2.52928e-10
0.000218115
2.60326e-10
0.000218115
2.90027e-10
0.000218115
3.14984e-10
0.000218115
3.16549e-10
0.000218115
3.03439e-10
0.000218115
2.91506e-10
0.000218115
2.69587e-10
0.000218114
2.49005e-10
0.000218114
2.36972e-10
0.000218114
2.24548e-10
0.000218114
2.11098e-10
0.000218114
1.97845e-10
0.000218114
1.79762e-10
0.000218114
1.58659e-10
0.000218114
1.39235e-10
0.000218114
1.21587e-10
0.000218114
1.06542e-10
0.000218114
9.526e-11
0.000218114
8.86783e-11
0.000218114
8.70724e-11
0.000218114
8.47288e-11
0.000218114
7.60316e-11
0.000218114
6.40589e-11
0.000218114
5.2597e-11
0.000218114
4.19452e-11
0.000218114
3.42111e-11
0.000218114
2.96784e-11
0.000218114
2.66216e-11
0.000218114
2.50889e-11
0.000218114
2.3089e-11
0.000218114
1.85139e-11
0.000218114
1.24287e-11
0.000218114
4.45411e-12
0.000218114
-5.11806e-12
0.000218114
-1.17279e-11
0.000218114
-1.37346e-11
0.000218114
-1.39262e-11
0.000218114
-1.41721e-11
0.000218114
-1.47055e-11
0.000218114
-1.34351e-11
0.000218114
-8.25173e-12
0.000218114
-2.06268e-12
0.000218114
2.59247e-13
0.000218114
-1.71849e-12
0.000218114
-5.03385e-12
0.000218114
-7.08944e-12
0.000218114
-7.44221e-12
0.000218114
-8.2846e-12
0.000218114
-1.13936e-11
0.000218114
-1.6222e-11
0.000218114
-2.06907e-11
0.000218114
-2.20678e-11
0.000218114
-1.96254e-11
0.000218114
-1.6466e-11
0.000218114
-1.55565e-11
0.000218114
-1.54059e-11
0.000218114
-1.2458e-11
0.000218114
-6.81693e-12
0.000218114
-1.41806e-12
0.000218114
-3.02182e-14
0.000218114
-2.66778e-12
0.000218114
-5.26003e-12
0.000218114
-3.7119e-12
0.000218114
2.40717e-12
0.000218114
9.88236e-12
0.000218114
1.48076e-11
0.000218114
1.58335e-11
0.000218114
1.52253e-11
0.000218114
1.63053e-11
0.000218114
1.95578e-11
0.000218114
2.19229e-11
0.000218114
1.98736e-11
0.000218114
1.38417e-11
0.000218114
8.09887e-12
0.000218114
5.66704e-12
0.000218114
4.66834e-12
0.000218114
1.44037e-12
0.000218114
-4.47497e-12
0.000218114
-9.77132e-12
0.000218114
-1.14265e-11
0.000218114
-9.46097e-12
0.000218114
-6.73211e-12
0.000218114
-6.35799e-12
0.000218114
-8.9761e-12
0.000218114
-1.19186e-11
0.000218114
-1.14456e-11
0.000218114
-6.48685e-12
0.000218114
-4.37159e-13
0.000218114
2.55115e-12
0.000218114
2.30816e-12
0.000218114
2.3089e-12
0.000218114
4.87448e-12
0.000218114
7.89471e-12
0.000218114
7.11538e-12
0.000218114
1.40164e-12
0.000218114
-5.99606e-12
0.000218114
-1.0447e-11
0.000218114
-1.06772e-11
0.000218114
-8.34659e-12
0.000218114
-6.20089e-12
0.000218114
-5.63854e-12
0.000218114
-5.7123e-12
0.000218114
-4.34894e-12
0.000218114
-7.30256e-13
0.000218114
2.91278e-12
0.000218114
3.81117e-12
0.000218114
2.26789e-12
0.000218114
1.60352e-12
0.000218114
3.6545e-12
0.000218114
6.41719e-12
0.000218114
7.29961e-12
0.000218114
5.95905e-12
0.000218114
3.57168e-12
0.000218114
1.7139e-12
0.000218114
1.49341e-12
0.000218114
2.56633e-12
0.000218114
2.81897e-12
0.000218114
8.23098e-13
0.000218114
-1.45132e-12
0.000218114
-2.05593e-13
0.000218114
5.12629e-12
0.000218114
1.05541e-11
0.000218114
1.25841e-11
0.000218114
1.2041e-11
0.000218114
1.11196e-11
0.000218114
1.04693e-11
0.000218114
9.33666e-12
0.000218114
6.84174e-12
0.000218114
4.57475e-12
0.000218114
4.37093e-12
0.000218114
4.93936e-12
0.000218114
5.48877e-12
0.000218114
6.0445e-12
0.000218114
5.55199e-12
0.000218114
4.75097e-12
0.000218114
4.87511e-12
0.000218114
6.48217e-12
0.000218114
8.41635e-12
0.000218114
8.08132e-12
0.000218114
5.75258e-12
0.000218114
-1.27618e-13
0.000218114
-4.93888e-12
0.000218114
-1.33045e-11
0.000218114
-2.35021e-11
0.000218114
-3.66631e-11
-4.43945e-11
0.000230513
1.2687e-10
0.000230513
1.71268e-10
0.000230513
2.07719e-10
0.000230513
2.43305e-10
0.000230513
2.69013e-10
0.000230513
3.02945e-10
0.000230513
3.27663e-10
0.000230513
3.41772e-10
0.000230513
3.49626e-10
0.000230513
3.56305e-10
0.000230513
3.51006e-10
0.000230513
3.34461e-10
0.000230513
3.20257e-10
0.000230513
3.04972e-10
0.000230512
2.82801e-10
0.000230512
2.57567e-10
0.000230512
2.29378e-10
0.000230512
2.01414e-10
0.000230512
1.7992e-10
0.000230512
1.61614e-10
0.000230512
1.43807e-10
0.000230512
1.28945e-10
0.000230512
1.15698e-10
0.000230512
1.03939e-10
0.000230512
9.47501e-11
0.000230512
8.42843e-11
0.000230512
7.25387e-11
0.000230512
6.36766e-11
0.000230512
5.68403e-11
0.000230512
5.08641e-11
0.000230512
4.52687e-11
0.000230512
3.7383e-11
0.000230512
2.88682e-11
0.000230512
2.25628e-11
0.000230512
1.69331e-11
0.000230512
1.17164e-11
0.000230512
6.4493e-12
0.000230512
-1.31268e-12
0.000230512
-8.46252e-12
0.000230512
-1.07066e-11
0.000230512
-9.56352e-12
0.000230512
-7.42001e-12
0.000230512
-6.39495e-12
0.000230512
-7.40199e-12
0.000230512
-7.48795e-12
0.000230512
-4.18083e-12
0.000230512
2.90368e-13
0.000230512
2.61515e-12
0.000230512
1.79293e-12
0.000230512
-1.0115e-12
0.000230512
-3.20059e-12
0.000230512
-3.9821e-12
0.000230512
-4.79074e-12
0.000230512
-7.00918e-12
0.000230512
-1.11274e-11
0.000230512
-1.58774e-11
0.000230512
-1.77182e-11
0.000230512
-1.55252e-11
0.000230512
-1.23425e-11
0.000230512
-1.2102e-11
0.000230512
-1.46214e-11
0.000230512
-1.70208e-11
0.000230512
-1.6547e-11
0.000230512
-1.32764e-11
0.000230512
-9.66752e-12
0.000230512
-7.31611e-12
0.000230512
-5.38362e-12
0.000230512
-1.58435e-12
0.000230512
5.34741e-12
0.000230512
1.40583e-11
0.000230512
2.1072e-11
0.000230512
2.36288e-11
0.000230512
2.23536e-11
0.000230512
2.03731e-11
0.000230512
1.96102e-11
0.000230512
1.83991e-11
0.000230512
1.34006e-11
0.000230512
4.55008e-12
0.000230512
-3.5381e-12
0.000230512
-6.51742e-12
0.000230512
-4.95208e-12
0.000230512
-3.14854e-12
0.000230512
-3.95935e-12
0.000230512
-6.75416e-12
0.000230512
-9.18792e-12
0.000230512
-9.35399e-12
0.000230512
-7.49401e-12
0.000230512
-5.95703e-12
0.000230512
-6.57564e-12
0.000230512
-8.25095e-12
0.000230512
-7.41858e-12
0.000230512
-2.06267e-12
0.000230512
5.29532e-12
0.000230512
9.87879e-12
0.000230512
9.67486e-12
0.000230512
7.1574e-12
0.000230512
5.95656e-12
0.000230512
6.69391e-12
0.000230512
7.0784e-12
0.000230512
5.21953e-12
0.000230512
1.96412e-12
0.000230512
-4.62291e-13
0.000230512
-4.42924e-13
0.000230512
1.59302e-12
0.000230512
3.35083e-12
0.000230512
2.37439e-12
0.000230512
-8.34826e-13
0.000230512
-2.69673e-12
0.000230512
-7.59951e-13
0.000230512
2.89857e-12
0.000230512
4.18489e-12
0.000230512
2.1431e-12
0.000230512
-1.50683e-13
0.000230512
-1.07141e-13
0.000230512
1.69788e-12
0.000230512
3.09413e-12
0.000230512
2.72829e-12
0.000230512
6.98872e-13
0.000230512
-1.5689e-12
0.000230512
-1.80839e-12
0.000230512
7.37953e-13
0.000230512
4.24831e-12
0.000230512
5.62785e-12
0.000230512
4.99133e-12
0.000230512
4.68985e-12
0.000230512
5.88912e-12
0.000230512
6.41702e-12
0.000230512
4.44033e-12
0.000230512
1.4265e-12
0.000230512
2.11911e-13
0.000230512
1.89814e-12
0.000230512
4.63511e-12
0.000230512
5.68005e-12
0.000230512
4.93494e-12
0.000230512
3.08539e-12
0.000230512
1.53407e-12
0.000230512
2.88406e-12
0.000230512
5.81281e-12
0.000230512
8.22689e-12
0.000230512
1.01501e-11
0.000230512
1.13731e-11
0.000230512
1.05784e-11
0.000230512
7.29334e-12
0.000230512
4.16939e-12
0.000230512
9.57776e-13
0.000230512
-2.61797e-12
0.000230512
-6.70824e-12
0.000230512
-1.42628e-11
0.000230512
-2.20539e-11
-2.98562e-11
0.000234644
1.60419e-10
0.000234644
1.76826e-10
0.000234644
1.76846e-10
0.000234644
2.02491e-10
0.000234644
2.44818e-10
0.000234644
2.9664e-10
0.000234644
3.44959e-10
0.000234644
3.7581e-10
0.000234644
3.8978e-10
0.000234644
4.01468e-10
0.000234644
4.098e-10
0.000234644
4.0295e-10
0.000234644
3.85497e-10
0.000234644
3.62956e-10
0.000234644
3.31891e-10
0.000234644
2.9941e-10
0.000234644
2.72332e-10
0.000234644
2.4626e-10
0.000234644
2.20372e-10
0.000234644
1.95243e-10
0.000234644
1.70877e-10
0.000234644
1.51946e-10
0.000234644
1.37005e-10
0.000234644
1.20588e-10
0.000234644
1.05193e-10
0.000234644
9.2017e-11
0.000234644
7.82924e-11
0.000234644
6.578e-11
0.000234644
5.47416e-11
0.000234644
4.40655e-11
0.000234644
3.6232e-11
0.000234644
3.0312e-11
0.000234644
2.4035e-11
0.000234644
1.86272e-11
0.000234644
1.29853e-11
0.000234644
6.6002e-12
0.000234644
2.48494e-12
0.000234644
-7.79013e-13
0.000234644
-4.63366e-12
0.000234644
-7.55016e-12
0.000234644
-9.60349e-12
0.000234644
-1.16855e-11
0.000234644
-1.34455e-11
0.000234644
-1.55728e-11
0.000234644
-1.78518e-11
0.000234644
-1.74472e-11
0.000234644
-1.35912e-11
0.000234644
-7.65378e-12
0.000234644
-2.37551e-12
0.000234644
-3.84336e-13
0.000234644
-1.6552e-12
0.000234644
-3.6491e-12
0.000234644
-3.66573e-12
0.000234644
-4.19238e-13
0.000234644
4.29981e-12
0.000234644
6.54744e-12
0.000234644
5.76003e-12
0.000234644
4.94627e-12
0.000234644
6.34427e-12
0.000234644
8.36485e-12
0.000234644
7.83021e-12
0.000234644
3.17405e-12
0.000234644
-3.74228e-12
0.000234644
-8.98344e-12
0.000234644
-9.97517e-12
0.000234644
-6.82656e-12
0.000234644
-1.91423e-12
0.000234644
2.56034e-12
0.000234644
6.17316e-12
0.000234644
9.9932e-12
0.000234644
1.44549e-11
0.000234644
1.78389e-11
0.000234644
1.74463e-11
0.000234644
1.29252e-11
0.000234644
7.05952e-12
0.000234644
3.3258e-12
0.000234644
2.14951e-12
0.000234644
6.42353e-13
0.000234644
-2.94131e-12
0.000234644
-7.07955e-12
0.000234644
-8.53033e-12
0.000234644
-6.55292e-12
0.000234644
-2.95528e-12
0.000234644
-2.43875e-13
0.000234644
4.04273e-14
0.000234644
-1.67217e-12
0.000234644
-3.35762e-12
0.000234644
-3.23997e-12
0.000234644
-1.51826e-12
0.000234644
-2.4563e-13
0.000234644
-8.61678e-13
0.000234644
-2.13084e-12
0.000234644
-1.72647e-12
0.000234644
8.41902e-13
0.000234644
3.42376e-12
0.000234644
4.16073e-12
0.000234644
3.48857e-12
0.000234644
3.49859e-12
0.000234644
5.12658e-12
0.000234644
7.45607e-12
0.000234644
8.82813e-12
0.000234644
8.23121e-12
0.000234644
6.07826e-12
0.000234644
4.32423e-12
0.000234644
4.79547e-12
0.000234644
6.38267e-12
0.000234644
5.87437e-12
0.000234644
2.08741e-12
0.000234644
-2.29414e-12
0.000234644
-4.4962e-12
0.000234644
-4.41894e-12
0.000234644
-4.17842e-12
0.000234644
-4.48105e-12
0.000234644
-4.3662e-12
0.000234644
-3.239e-12
0.000234644
-1.78001e-12
0.000234643
-5.26401e-13
0.000234643
6.7556e-13
0.000234643
1.49624e-12
0.000234643
1.47665e-12
0.000234643
1.42826e-12
0.000234643
2.75207e-12
0.000234643
4.75603e-12
0.000234643
5.27587e-12
0.000234644
2.96787e-12
0.000234644
-8.38479e-13
0.000234644
-3.62345e-12
0.000234644
-4.3848e-12
0.000234644
-3.5988e-12
0.000234644
-2.5403e-12
0.000234644
-2.55987e-12
0.000234644
-3.4966e-12
0.000234644
-3.89168e-12
0.000234644
-2.6637e-12
0.000234644
-1.167e-12
0.000234644
-1.12673e-12
0.000234644
-7.58578e-13
0.000234644
3.83585e-13
0.000234644
1.55775e-12
0.000234644
1.32514e-12
0.000234644
5.69118e-13
0.000234644
1.67388e-12
0.000234644
2.60834e-12
0.000234644
1.30647e-12
0.000234644
7.84841e-13
0.000234644
-2.36236e-12
0.000234644
-5.03421e-12
0.000234643
-8.02232e-12
0.000234643
-1.22791e-11
-1.74193e-11
0.000230514
1.23884e-10
0.000230514
1.21777e-10
0.000230514
1.3192e-10