/*--------------------------------*- C++ -*----------------------------------*\
| =========                 |                                                 |
| \\      /  F ield         | OpenFOAM: The Open Source CFD Toolbox           |
|  \\    /   O peration     | Version:  2406                                  |
|   \\  /    A nd           | Website:  www.openfoam.com                      |
|    \\/     M anipulation  |                                                 |
\*---------------------------------------------------------------------------*/
FoamFile
{
    version     2.0;
    format      ascii;
    arch        "LSB;label=32;scalar=64";
    class       volVectorField;
    location    "0.4";
    object      U;
}
// * * * * * * * * * * * * * * * * * * * * * * * * * * * * * * * * * * * * * //

dimensions      [0 1 -1 0 0 0 0];

internalField   nonuniform List<vector> 
2250
(
(0.469471 -3.77015e-08 0)
(0.469471 -1.85696e-07 0)
(0.469471 -2.52653e-07 0)
(0.469471 -3.0917e-07 0)
(0.469471 -3.71537e-07 0)
(0.469471 -3.09145e-07 0)
(0.469472 -3.2018e-07 0)
(0.469472 -3.91481e-07 0)
(0.469473 -2.85762e-07 0)
(0.469473 -1.04348e-07 0)
(0.469473 -2.24951e-08 0)
(0.469473 -8.00819e-08 0)
(0.469473 -1.5027e-07 0)
(0.469473 -1.1686e-07 0)
(0.469474 1.32458e-08 0)
(0.469474 4.04868e-08 0)
(0.469474 -3.53019e-08 0)
(0.469474 -4.25951e-08 0)
(0.469474 2.45335e-08 0)
(0.469473 9.42871e-08 0)
(0.469473 1.21319e-07 0)
(0.469473 7.85288e-08 0)
(0.469473 1.83662e-08 0)
(0.469473 -1.1185e-08 0)
(0.469473 -3.64578e-08 0)
(0.469473 -4.03627e-08 0)
(0.469473 -8.73017e-10 0)
(0.469473 3.21932e-08 0)
(0.469473 4.08368e-08 0)
(0.469473 3.21386e-08 0)
(0.469473 1.66803e-09 0)
(0.469472 -2.12441e-08 0)
(0.469472 -1.76257e-08 0)
(0.469472 -1.40096e-09 0)
(0.469472 2.01405e-08 0)
(0.469472 2.49091e-08 0)
(0.469472 8.02877e-09 0)
(0.469472 7.33962e-09 0)
(0.469472 2.75036e-08 0)
(0.469472 3.55578e-08 0)
(0.469472 2.2099e-08 0)
(0.469472 -2.80608e-09 0)
(0.469472 -1.66115e-08 0)
(0.469472 6.96685e-09 0)
(0.469472 4.9966e-08 0)
(0.469472 6.32138e-08 0)
(0.469472 2.73482e-08 0)
(0.469472 -3.7308e-08 0)
(0.469472 -8.47666e-08 0)
(0.469472 -8.32071e-08 0)
(0.469472 -5.50908e-08 0)
(0.469472 -5.16597e-08 0)
(0.469472 -8.6779e-08 0)
(0.469472 -1.21946e-07 0)
(0.469472 -1.08909e-07 0)
(0.469472 -4.86916e-08 0)
(0.469472 1.00607e-09 0)
(0.469472 -8.70036e-09 0)
(0.469472 -6.16894e-08 0)
(0.469472 -9.84608e-08 0)
(0.469472 -7.97515e-08 0)
(0.469472 -2.22712e-08 0)
(0.469472 2.22977e-08 0)
(0.469472 2.11788e-08 0)
(0.469473 -7.31988e-09 0)
(0.469473 -1.18773e-08 0)
(0.469472 3.1323e-08 0)
(0.469472 8.43909e-08 0)
(0.469472 8.71867e-08 0)
(0.469472 2.195e-08 0)
(0.469473 -6.09339e-08 0)
(0.469473 -9.09177e-08 0)
(0.469473 -5.3046e-08 0)
(0.469473 -2.89131e-09 0)
(0.469473 -3.8095e-09 0)
(0.469473 -5.58305e-08 0)
(0.469473 -9.41322e-08 0)
(0.469473 -6.07066e-08 0)
(0.469473 3.02422e-08 0)
(0.469473 1.06716e-07 0)
(0.469473 1.17012e-07 0)
(0.469473 8.0479e-08 0)
(0.469473 5.90499e-08 0)
(0.469473 8.67734e-08 0)
(0.469472 1.3428e-07 0)
(0.469472 1.41432e-07 0)
(0.469472 8.40738e-08 0)
(0.469472 1.52905e-09 0)
(0.469472 -4.14546e-08 0)
(0.469472 -2.64464e-08 0)
(0.469472 -1.02349e-09 0)
(0.469472 -2.27077e-08 0)
(0.469472 -9.2859e-08 0)
(0.469472 -1.52872e-07 0)
(0.469473 -1.48243e-07 0)
(0.469473 -9.12573e-08 0)
(0.469473 -4.33577e-08 0)
(0.469473 -5.03293e-08 0)
(0.469474 -9.77745e-08 0)
(0.469474 -1.29533e-07 0)
(0.469474 -1.05649e-07 0)
(0.469473 -4.45964e-08 0)
(0.469473 -8.85392e-09 0)
(0.469473 -3.73604e-08 0)
(0.469473 -9.97004e-08 0)
(0.469473 -1.28985e-07 0)
(0.469473 -9.81896e-08 0)
(0.469473 -4.6418e-08 0)
(0.469474 -3.17071e-08 0)
(0.469474 -6.19707e-08 0)
(0.469474 -9.22975e-08 0)
(0.469474 -7.78684e-08 0)
(0.469474 -2.00358e-08 0)
(0.469474 3.21083e-08 0)
(0.469474 3.6907e-08 0)
(0.469474 7.43381e-09 0)
(0.469473 -1.02939e-08 0)
(0.469473 1.33621e-08 0)
(0.469473 6.39867e-08 0)
(0.469473 9.41274e-08 0)
(0.469473 7.23531e-08 0)
(0.469472 2.13184e-08 0)
(0.469472 -7.89852e-09 0)
(0.469472 6.57646e-09 0)
(0.469472 3.89657e-08 0)
(0.469472 4.76261e-08 0)
(0.469472 2.35176e-08 0)
(0.469472 -4.25785e-09 0)
(0.469472 -8.58331e-09 0)
(0.469472 1.29939e-08 0)
(0.469472 4.53442e-08 0)
(0.469472 5.65769e-08 0)
(0.469472 3.40153e-08 0)
(0.469472 1.35971e-08 0)
(0.469472 2.36235e-08 0)
(0.469472 4.3262e-08 0)
(0.469472 4.81923e-08 0)
(0.469472 3.59024e-08 0)
(0.469472 1.90684e-08 0)
(0.469472 1.64102e-08 0)
(0.469472 2.22352e-08 0)
(0.469472 1.38117e-08 0)
(0.469472 -7.13544e-09 0)
(0.469472 -2.21309e-08 0)
(0.469472 -3.66152e-08 0)
(0.469472 -4.67e-08 0)
(0.469472 -3.72917e-08 0)
(0.469473 -2.71546e-08 0)
(0.469473 -2.17187e-08 0)
(0.469473 -3.43799e-08 0)
(1.28135 2.9448e-07 0)
(1.28135 1.6397e-08 0)
(1.28135 -1.58731e-07 0)
(1.28135 -1.22301e-07 0)
(1.28135 -3.56458e-07 0)
(1.28135 -5.967e-07 0)
(1.28135 -5.52028e-07 0)
(1.28135 -5.15191e-07 0)
(1.28135 -5.08587e-07 0)
(1.28135 -4.57953e-07 0)
(1.28135 -4.26902e-07 0)
(1.28135 -4.50623e-07 0)
(1.28135 -3.48378e-07 0)
(1.28135 -1.75927e-07 0)
(1.28135 -1.95462e-08 0)
(1.28135 2.58744e-08 0)
(1.28135 -8.77778e-09 0)
(1.28135 6.17188e-08 0)
(1.28135 1.77762e-07 0)
(1.28135 2.3433e-07 0)
(1.28135 2.69852e-07 0)
(1.28135 2.52204e-07 0)
(1.28135 1.67389e-07 0)
(1.28135 1.04805e-07 0)
(1.28135 6.1414e-08 0)
(1.28135 3.53117e-08 0)
(1.28135 7.61287e-08 0)
(1.28135 1.23284e-07 0)
(1.28135 1.1748e-07 0)
(1.28135 7.02016e-08 0)
(1.28135 -1.2495e-08 0)
(1.28135 -7.91465e-08 0)
(1.28135 -7.73528e-08 0)
(1.28135 -2.25976e-08 0)
(1.28135 6.09545e-08 0)
(1.28135 1.22027e-07 0)
(1.28135 1.12822e-07 0)
(1.28135 8.36679e-08 0)
(1.28135 9.54526e-08 0)
(1.28135 1.30134e-07 0)
(1.28135 1.53565e-07 0)
(1.28135 1.42031e-07 0)
(1.28135 9.72699e-08 0)
(1.28135 6.57128e-08 0)
(1.28135 6.85867e-08 0)
(1.28135 6.77401e-08 0)
(1.28135 2.31604e-08 0)
(1.28135 -7.52142e-08 0)
(1.28135 -1.9092e-07 0)
(1.28135 -2.57304e-07 0)
(1.28135 -2.53404e-07 0)
(1.28135 -2.33885e-07 0)
(1.28135 -2.60102e-07 0)
(1.28135 -3.23402e-07 0)
(1.28135 -3.49379e-07 0)
(1.28135 -2.8535e-07 0)
(1.28135 -1.72152e-07 0)
(1.28135 -1.00537e-07 0)
(1.28135 -1.12491e-07 0)
(1.28135 -1.59503e-07 0)
(1.28135 -1.5386e-07 0)
(1.28135 -5.87311e-08 0)
(1.28135 7.5e-08 0)
(1.28135 1.64185e-07 0)
(1.28135 1.68014e-07 0)
(1.28135 1.27879e-07 0)
(1.28135 1.18536e-07 0)
(1.28135 1.57332e-07 0)
(1.28135 1.81664e-07 0)
(1.28135 1.21038e-07 0)
(1.28135 -1.29776e-08 0)
(1.28135 -1.28062e-07 0)
(1.28135 -1.44759e-07 0)
(1.28135 -7.78307e-08 0)
(1.28135 -1.65638e-08 0)
(1.28135 -2.51895e-08 0)
(1.28135 -7.2117e-08 0)
(1.28135 -6.69926e-08 0)
(1.28135 3.27966e-08 0)
(1.28135 1.64881e-07 0)
(1.28135 2.24112e-07 0)
(1.28135 1.7385e-07 0)
(1.28135 7.89598e-08 0)
(1.28135 3.55026e-08 0)
(1.28135 7.27444e-08 0)
(1.28135 1.2685e-07 0)
(1.28135 1.11608e-07 0)
(1.28135 1.2385e-08 0)
(1.28135 -9.56065e-08 0)
(1.28135 -1.29791e-07 0)
(1.28135 -9.1064e-08 0)
(1.28135 -6.21012e-08 0)
(1.28135 -1.11804e-07 0)
(1.28135 -2.13939e-07 0)
(1.28135 -2.76862e-07 0)
(1.28135 -2.49833e-07 0)
(1.28135 -1.72353e-07 0)
(1.28135 -1.29283e-07 0)
(1.28135 -1.65809e-07 0)
(1.28135 -2.44693e-07 0)
(1.28135 -2.7895e-07 0)
(1.28135 -2.22944e-07 0)
(1.28135 -1.26318e-07 0)
(1.28135 -8.07008e-08 0)
(1.28135 -1.14969e-07 0)
(1.28135 -1.64522e-07 0)
(1.28135 -1.5018e-07 0)
(1.28135 -7.10955e-08 0)
(1.28135 -2.90283e-09 0)
(1.28135 -5.71721e-09 0)
(1.28135 -6.49516e-08 0)
(1.28135 -1.04315e-07 0)
(1.28135 -6.43435e-08 0)
(1.28135 2.75406e-08 0)
(1.28135 8.91909e-08 0)
(1.28135 8.47288e-08 0)
(1.28135 5.20083e-08 0)
(1.28135 5.21103e-08 0)
(1.28135 1.10116e-07 0)
(1.28135 1.8741e-07 0)
(1.28135 2.1358e-07 0)
(1.28135 1.66515e-07 0)
(1.28135 1.00898e-07 0)
(1.28135 8.32701e-08 0)
(1.28135 1.21377e-07 0)
(1.28135 1.60648e-07 0)
(1.28135 1.54579e-07 0)
(1.28135 1.18527e-07 0)
(1.28135 8.86421e-08 0)
(1.28135 7.79698e-08 0)
(1.28135 9.4635e-08 0)
(1.28135 1.14371e-07 0)
(1.28135 8.35727e-08 0)
(1.28135 2.16591e-08 0)
(1.28135 2.4041e-10 0)
(1.28134 2.40463e-08 0)
(1.28134 5.57605e-08 0)
(1.28134 7.07766e-08 0)
(1.28134 5.66069e-08 0)
(1.28134 3.31545e-08 0)
(1.28134 2.09353e-08 0)
(1.28134 6.99382e-09 0)
(1.28134 -1.43843e-08 0)
(1.28134 -2.15025e-08 0)
(1.28135 -3.62725e-08 0)
(1.28135 -7.97052e-08 0)
(1.28135 -1.09297e-07 0)
(1.28135 -1.43068e-07 0)
(1.28135 -2.05454e-07 0)
(1.28135 -2.30199e-07 0)
(1.96689 9.48763e-07 0)
(1.96688 9.13157e-07 0)
(1.96688 7.13821e-07 0)
(1.96688 6.30336e-07 0)
(1.96688 6.17205e-07 0)
(1.96688 6.91569e-08 0)
(1.96688 -9.05469e-08 0)
(1.96688 -6.36852e-08 0)
(1.96688 -2.4363e-07 0)
(1.96688 -5.13726e-07 0)
(1.96688 -4.94476e-07 0)
(1.96688 -3.5482e-07 0)
(1.96688 -1.81307e-07 0)
(1.96688 -3.10134e-08 0)
(1.96688 4.01141e-08 0)
(1.96688 1.10376e-07 0)
(1.96688 1.77864e-07 0)
(1.96688 2.56611e-07 0)
(1.96688 3.21517e-07 0)
(1.96688 3.26063e-07 0)
(1.96687 3.38541e-07 0)
(1.96687 3.77243e-07 0)
(1.96687 3.58428e-07 0)
(1.96687 3.15814e-07 0)
(1.96687 2.95174e-07 0)
(1.96687 2.62136e-07 0)
(1.96687 2.33125e-07 0)
(1.96687 2.07428e-07 0)
(1.96687 1.46867e-07 0)
(1.96687 7.01807e-08 0)
(1.96687 -3.51132e-09 0)
(1.96687 -6.36962e-08 0)
(1.96687 -7.50587e-08 0)
(1.96687 -3.13689e-08 0)
(1.96687 5.56323e-08 0)
(1.96687 1.61689e-07 0)
(1.96687 2.20591e-07 0)
(1.96687 2.07075e-07 0)
(1.96687 1.74957e-07 0)
(1.96687 1.70646e-07 0)
(1.96687 1.99005e-07 0)
(1.96687 2.23535e-07 0)
(1.96687 1.88021e-07 0)
(1.96687 9.59451e-08 0)
(1.96687 1.03887e-08 0)
(1.96687 -2.84454e-08 0)
(1.96687 -3.66352e-08 0)
(1.96687 -6.48252e-08 0)
(1.96687 -1.51164e-07 0)
(1.96687 -2.73068e-07 0)
(1.96687 -3.68366e-07 0)
(1.96687 -4.05949e-07 0)
(1.96687 -4.15225e-07 0)
(1.96687 -4.42624e-07 0)
(1.96687 -4.89244e-07 0)
(1.96687 -5.01806e-07 0)
(1.96687 -4.35579e-07 0)
(1.96687 -3.06451e-07 0)
(1.96687 -1.78909e-07 0)
(1.96687 -1.03944e-07 0)
(1.96687 -6.6912e-08 0)
(1.96687 -9.02515e-09 0)
(1.96687 1.04742e-07 0)
(1.96687 2.45655e-07 0)
(1.96687 3.41692e-07 0)
(1.96687 3.41298e-07 0)
(1.96687 2.65272e-07 0)
(1.96687 1.88774e-07 0)
(1.96687 1.6312e-07 0)
(1.96687 1.68789e-07 0)
(1.96687 1.47713e-07 0)
(1.96687 7.51832e-08 0)
(1.96687 -5.35724e-09 0)
(1.96687 -2.38391e-08 0)
(1.96687 4.05675e-08 0)
(1.96687 1.30771e-07 0)
(1.96687 1.69e-07 0)
(1.96687 1.38004e-07 0)
(1.96687 9.4169e-08 0)
(1.96687 9.31881e-08 0)
(1.96687 1.21082e-07 0)
(1.96687 1.1061e-07 0)
(1.96687 2.30026e-08 0)
(1.96687 -1.0043e-07 0)
(1.96687 -1.75448e-07 0)
(1.96687 -1.57087e-07 0)
(1.96687 -8.67821e-08 0)
(1.96687 -4.96871e-08 0)
(1.96687 -8.69961e-08 0)
(1.96687 -1.54829e-07 0)
(1.96687 -1.74689e-07 0)
(1.96687 -1.20942e-07 0)
(1.96687 -5.30586e-08 0)
(1.96687 -4.89443e-08 0)
(1.96687 -1.19365e-07 0)
(1.96687 -2.01724e-07 0)
(1.96687 -2.34398e-07 0)
(1.96687 -2.19563e-07 0)
(1.96687 -2.14504e-07 0)
(1.96687 -2.68698e-07 0)
(1.96687 -3.58814e-07 0)
(1.96687 -4.02202e-07 0)
(1.96687 -3.42552e-07 0)
(1.96687 -2.13646e-07 0)
(1.96687 -1.0653e-07 0)
(1.96687 -7.6639e-08 0)
(1.96687 -9.56911e-08 0)
(1.96687 -9.6357e-08 0)
(1.96687 -5.1574e-08 0)
(1.96687 4.29612e-09 0)
(1.96687 1.36495e-08 0)
(1.96687 -3.80794e-08 0)
(1.96687 -9.43491e-08 0)
(1.96687 -9.04089e-08 0)
(1.96687 -3.1005e-08 0)
(1.96687 2.80228e-08 0)
(1.96687 5.0276e-08 0)
(1.96687 4.81696e-08 0)
(1.96687 6.19327e-08 0)
(1.96687 1.2135e-07 0)
(1.96687 2.07728e-07 0)
(1.96687 2.65147e-07 0)
(1.96687 2.6234e-07 0)
(1.96687 2.31143e-07 0)
(1.96687 2.30943e-07 0)
(1.96687 2.79171e-07 0)
(1.96687 3.25747e-07 0)
(1.96687 3.25729e-07 0)
(1.96687 2.83743e-07 0)
(1.96687 2.15324e-07 0)
(1.96687 1.52313e-07 0)
(1.96687 1.36187e-07 0)
(1.96687 1.39649e-07 0)
(1.96687 1.08364e-07 0)
(1.96687 6.07479e-08 0)
(1.96687 3.15535e-08 0)
(1.96687 2.52971e-08 0)
(1.96687 3.9222e-08 0)
(1.96687 5.15785e-08 0)
(1.96687 4.77804e-08 0)
(1.96687 4.10815e-08 0)
(1.96687 4.26977e-08 0)
(1.96687 3.9167e-08 0)
(1.96687 2.05766e-08 0)
(1.96687 -1.43017e-08 0)
(1.96687 -8.95873e-08 0)
(1.96687 -1.85563e-07 0)
(1.96687 -2.92265e-07 0)
(1.96687 -4.58807e-07 0)
(1.96687 -5.44097e-07 0)
(2.52675 1.81442e-06 0)
(2.52675 1.8457e-06 0)
(2.52675 1.8598e-06 0)
(2.52675 1.57969e-06 0)
(2.52675 1.68078e-06 0)
(2.52674 1.36362e-06 0)
(2.52674 1.02267e-06 0)
(2.52674 7.8387e-07 0)
(2.52674 6.55584e-07 0)
(2.52674 4.82973e-07 0)
(2.52674 4.49418e-07 0)
(2.52674 4.51069e-07 0)
(2.52674 4.04567e-07 0)
(2.52674 4.35256e-07 0)
(2.52674 5.34315e-07 0)
(2.52673 6.03599e-07 0)
(2.52673 5.85177e-07 0)
(2.52673 5.22017e-07 0)
(2.52673 4.94153e-07 0)
(2.52673 4.97873e-07 0)
(2.52673 5.02159e-07 0)
(2.52673 5.09995e-07 0)
(2.52673 4.8468e-07 0)
(2.52673 4.27394e-07 0)
(2.52673 3.95749e-07 0)
(2.52673 3.75756e-07 0)
(2.52673 3.30221e-07 0)
(2.52673 2.61593e-07 0)
(2.52673 1.81583e-07 0)
(2.52673 1.16933e-07 0)
(2.52673 8.02658e-08 0)
(2.52673 5.36221e-08 0)
(2.52673 3.67412e-08 0)
(2.52673 4.25282e-08 0)
(2.52673 7.72781e-08 0)
(2.52673 1.40139e-07 0)
(2.52673 1.99044e-07 0)
(2.52673 2.09446e-07 0)
(2.52673 1.61333e-07 0)
(2.52673 8.60259e-08 0)
(2.52673 3.28508e-08 0)
(2.52673 2.39304e-08 0)
(2.52673 2.54254e-08 0)
(2.52673 -5.55769e-09 0)
(2.52673 -6.97362e-08 0)
(2.52673 -1.30266e-07 0)
(2.52673 -1.50046e-07 0)
(2.52673 -1.31331e-07 0)
(2.52673 -1.17494e-07 0)
(2.52673 -1.50342e-07 0)
(2.52673 -2.33942e-07 0)
(2.52673 -3.33471e-07 0)
(2.52673 -4.07702e-07 0)
(2.52673 -4.43735e-07 0)
(2.52673 -4.56655e-07 0)
(2.52673 -4.62834e-07 0)
(2.52673 -4.55605e-07 0)
(2.52673 -4.03242e-07 0)
(2.52673 -2.85422e-07 0)
(2.52673 -1.34941e-07 0)
(2.52673 -1.11843e-08 0)
(2.52673 5.91508e-08 0)
(2.52673 1.05075e-07 0)
(2.52673 1.66185e-07 0)
(2.52673 2.4747e-07 0)
(2.52673 3.04531e-07 0)
(2.52673 2.8908e-07 0)
(2.52673 2.09598e-07 0)
(2.52673 1.30433e-07 0)
(2.52673 1.11366e-07 0)
(2.52673 1.51339e-07 0)
(2.52673 1.92751e-07 0)
(2.52673 1.83879e-07 0)
(2.52673 1.36668e-07 0)
(2.52673 1.14203e-07 0)
(2.52673 1.58861e-07 0)
(2.52673 2.39604e-07 0)
(2.52673 2.78674e-07 0)
(2.52673 2.326e-07 0)
(2.52673 1.34029e-07 0)
(2.52673 4.82862e-08 0)
(2.52673 1.32511e-09 0)
(2.52673 -3.61591e-08 0)
(2.52673 -1.01971e-07 0)
(2.52673 -1.9117e-07 0)
(2.52673 -2.56978e-07 0)
(2.52673 -2.58554e-07 0)
(2.52673 -2.05808e-07 0)
(2.52673 -1.51287e-07 0)
(2.52673 -1.38108e-07 0)
(2.52673 -1.53976e-07 0)
(2.52673 -1.439e-07 0)
(2.52673 -7.59492e-08 0)
(2.52673 1.25909e-08 0)
(2.52673 5.04102e-08 0)
(2.52673 5.10142e-09 0)
(2.52673 -9.18512e-08 0)
(2.52673 -1.79451e-07 0)
(2.52673 -2.26188e-07 0)
(2.52673 -2.5458e-07 0)
(2.52673 -3.01145e-07 0)
(2.52673 -3.6145e-07 0)
(2.52673 -3.88318e-07 0)
(2.52673 -3.39678e-07 0)
(2.52673 -2.29238e-07 0)
(2.52673 -1.18083e-07 0)
(2.52673 -6.09048e-08 0)
(2.52673 -6.23384e-08 0)
(2.52673 -7.84105e-08 0)
(2.52673 -6.41192e-08 0)
(2.52673 -2.12581e-08 0)
(2.52673 -2.17407e-09 0)
(2.52673 -3.99416e-08 0)
(2.52673 -9.74822e-08 0)
(2.52673 -1.17347e-07 0)
(2.52673 -8.9301e-08 0)
(2.52673 -4.32972e-08 0)
(2.52673 -1.2328e-08 0)
(2.52673 -5.54711e-09 0)
(2.52673 2.93245e-09 0)
(2.52673 4.8567e-08 0)
(2.52673 1.30246e-07 0)
(2.52673 2.06674e-07 0)
(2.52673 2.434e-07 0)
(2.52673 2.5291e-07 0)
(2.52673 2.7856e-07 0)
(2.52673 3.23089e-07 0)
(2.52673 3.46215e-07 0)
(2.52673 3.2998e-07 0)
(2.52673 2.81898e-07 0)
(2.52673 2.11748e-07 0)
(2.52673 1.58938e-07 0)
(2.52673 1.47928e-07 0)
(2.52673 1.43241e-07 0)
(2.52673 1.23233e-07 0)
(2.52673 9.34956e-08 0)
(2.52673 5.30448e-08 0)
(2.52673 2.43203e-08 0)
(2.52673 2.88699e-08 0)
(2.52673 5.26952e-08 0)
(2.52673 7.49325e-08 0)
(2.52673 8.70225e-08 0)
(2.52673 7.47575e-08 0)
(2.52673 3.22748e-08 0)
(2.52673 -1.78915e-08 0)
(2.52673 -1.05109e-07 0)
(2.52673 -2.27325e-07 0)
(2.52673 -3.70707e-07 0)
(2.52673 -5.9359e-07 0)
(2.52673 -7.41007e-07 0)
(2.96154 2.50218e-06 0)
(2.96153 2.35907e-06 0)
(2.96153 2.50327e-06 0)
(2.96153 2.60015e-06 0)
(2.96153 2.62337e-06 0)
(2.96153 2.61518e-06 0)
(2.96153 2.5183e-06 0)
(2.96153 2.33935e-06 0)
(2.96153 2.2388e-06 0)
(2.96152 2.08845e-06 0)
(2.96152 1.86403e-06 0)
(2.96152 1.69362e-06 0)
(2.96152 1.55737e-06 0)
(2.96152 1.4623e-06 0)
(2.96152 1.40878e-06 0)
(2.96152 1.34337e-06 0)
(2.96152 1.2499e-06 0)
(2.96152 1.13073e-06 0)
(2.96152 1.00969e-06 0)
(2.96151 9.31222e-07 0)
(2.96151 8.82653e-07 0)
(2.96151 8.22577e-07 0)
(2.96151 7.39916e-07 0)
(2.96151 6.57139e-07 0)
(2.96151 6.13232e-07 0)
(2.96151 6.08342e-07 0)
(2.96151 5.92764e-07 0)
(2.96151 5.25137e-07 0)
(2.96151 4.18699e-07 0)
(2.96151 3.16893e-07 0)
(2.96151 2.39919e-07 0)
(2.96151 1.91779e-07 0)
(2.96151 1.72707e-07 0)
(2.96151 1.70396e-07 0)
(2.96151 1.80121e-07 0)
(2.96151 1.95406e-07 0)
(2.96151 1.92739e-07 0)
(2.96151 1.63e-07 0)
(2.96151 1.06011e-07 0)
(2.96151 1.29145e-08 0)
(2.96151 -9.3365e-08 0)
(2.96151 -1.64629e-07 0)
(2.96151 -1.80958e-07 0)
(2.96151 -1.60596e-07 0)
(2.96151 -1.41546e-07 0)
(2.96151 -1.46198e-07 0)
(2.96151 -1.49376e-07 0)
(2.96151 -1.20214e-07 0)
(2.96151 -7.49692e-08 0)
(2.96151 -6.11854e-08 0)
(2.96151 -1.15e-07 0)
(2.96151 -2.27494e-07 0)
(2.96151 -3.44156e-07 0)
(2.96151 -4.10214e-07 0)
(2.96151 -4.10594e-07 0)
(2.96151 -3.71847e-07 0)
(2.96151 -3.37881e-07 0)
(2.96151 -3.19114e-07 0)
(2.96151 -2.73448e-07 0)
(2.96151 -1.6768e-07 0)
(2.96151 -3.26514e-08 0)
(2.96151 6.83317e-08 0)
(2.96151 1.08486e-07 0)
(2.96151 1.15181e-07 0)
(2.96151 1.36443e-07 0)
(2.96151 1.84047e-07 0)
(2.96151 2.23092e-07 0)
(2.96151 2.1716e-07 0)
(2.96151 1.70975e-07 0)
(2.96151 1.28516e-07 0)
(2.96151 1.31585e-07 0)
(2.96151 1.79938e-07 0)
(2.96151 2.30441e-07 0)
(2.96151 2.40734e-07 0)
(2.96151 2.12947e-07 0)
(2.96151 1.90221e-07 0)
(2.96151 2.05286e-07 0)
(2.96151 2.35011e-07 0)
(2.96151 2.18202e-07 0)
(2.96151 1.2567e-07 0)
(2.96151 -2.34966e-09 0)
(2.96151 -9.53807e-08 0)
(2.96151 -1.23426e-07 0)
(2.96151 -1.16723e-07 0)
(2.96151 -1.25933e-07 0)
(2.96151 -1.708e-07 0)
(2.96151 -2.21161e-07 0)
(2.96151 -2.30582e-07 0)
(2.96151 -1.83e-07 0)
(2.96151 -1.07637e-07 0)
(2.96151 -4.95934e-08 0)
(2.96151 -2.34485e-08 0)
(2.96151 -1.49199e-10 0)
(2.96151 4.77248e-08 0)
(2.96151 1.01039e-07 0)
(2.96151 1.0697e-07 0)
(2.96151 3.48404e-08 0)
(2.96151 -8.88686e-08 0)
(2.96151 -2.02068e-07 0)
(2.96151 -2.63111e-07 0)
(2.96151 -2.83941e-07 0)
(2.96151 -2.99616e-07 0)
(2.96151 -3.1845e-07 0)
(2.96151 -3.14183e-07 0)
(2.96151 -2.61664e-07 0)
(2.96151 -1.66825e-07 0)
(2.96151 -7.1028e-08 0)
(2.96151 -2.17848e-08 0)
(2.96151 -3.04904e-08 0)
(2.96151 -5.77128e-08 0)
(2.96151 -4.87673e-08 0)
(2.96151 -1.42102e-09 0)
(2.96151 2.96377e-08 0)
(2.96151 1.18009e-08 0)
(2.96151 -2.68309e-08 0)
(2.96151 -4.56183e-08 0)
(2.96151 -3.46003e-08 0)
(2.96151 -1.04425e-08 0)
(2.96151 5.57925e-09 0)
(2.96151 7.00857e-09 0)
(2.96151 1.15874e-08 0)
(2.96151 4.55306e-08 0)
(2.96151 1.11235e-07 0)
(2.96151 1.76517e-07 0)
(2.96151 2.05499e-07 0)
(2.96151 2.05889e-07 0)
(2.96151 2.15286e-07 0)
(2.96151 2.36518e-07 0)
(2.96151 2.48067e-07 0)
(2.96151 2.43055e-07 0)
(2.96151 2.15281e-07 0)
(2.96151 1.69998e-07 0)
(2.96151 1.30755e-07 0)
(2.96151 9.51438e-08 0)
(2.96151 5.84017e-08 0)
(2.96151 3.6614e-08 0)
(2.96151 1.88541e-08 0)
(2.96151 -5.38895e-10 0)
(2.96151 -1.85012e-09 0)
(2.96151 1.73926e-08 0)
(2.96151 5.45798e-08 0)
(2.96151 9.04031e-08 0)
(2.96151 8.04626e-08 0)
(2.96151 2.76784e-08 0)
(2.96151 -3.65745e-08 0)
(2.96151 -1.33814e-07 0)
(2.96151 -2.8071e-07 0)
(2.96151 -4.45989e-07 0)
(2.96151 -6.82329e-07 0)
(2.96151 -8.03526e-07 0)
(3.27173 2.29523e-06 0)
(3.27173 2.56097e-06 0)
(3.27173 2.94017e-06 0)
(3.27173 3.40575e-06 0)
(3.27173 3.53369e-06 0)
(3.27173 3.8413e-06 0)
(3.27173 4.06147e-06 0)
(3.27172 4.04409e-06 0)
(3.27172 3.88434e-06 0)
(3.27172 3.68255e-06 0)
(3.27172 3.36334e-06 0)
(3.27172 3.12647e-06 0)
(3.27172 2.96803e-06 0)
(3.27172 2.76324e-06 0)
(3.27171 2.54905e-06 0)
(3.27171 2.35592e-06 0)
(3.27171 2.14744e-06 0)
(3.27171 1.93657e-06 0)
(3.27171 1.73311e-06 0)
(3.27171 1.53349e-06 0)
(3.27171 1.36084e-06 0)
(3.27171 1.22063e-06 0)
(3.27171 1.11773e-06 0)
(3.27171 1.06683e-06 0)
(3.27171 1.03315e-06 0)
(3.27171 9.7534e-07 0)
(3.27171 8.99125e-07 0)
(3.27171 7.93448e-07 0)
(3.27171 6.51458e-07 0)
(3.27171 5.18307e-07 0)
(3.27171 4.14877e-07 0)
(3.27171 3.40461e-07 0)
(3.27171 3.06225e-07 0)
(3.27171 2.85482e-07 0)
(3.27171 2.50651e-07 0)
(3.27171 2.03911e-07 0)
(3.27171 1.29149e-07 0)
(3.27171 3.05136e-08 0)
(3.27171 -4.83463e-08 0)
(3.27171 -1.05363e-07 0)
(3.27171 -1.64383e-07 0)
(3.27171 -2.17698e-07 0)
(3.27171 -2.44988e-07 0)
(3.27171 -2.21763e-07 0)
(3.27171 -1.4283e-07 0)
(3.27171 -5.66524e-08 0)
(3.27171 -1.00194e-08 0)
(3.27171 -4.0798e-10 0)
(3.27171 -1.18113e-08 0)
(3.27171 -3.93912e-08 0)
(3.27171 -8.74395e-08 0)
(3.27171 -1.63016e-07 0)
(3.27171 -2.52959e-07 0)
(3.27171 -3.28701e-07 0)
(3.27171 -3.65903e-07 0)
(3.2717 -3.51215e-07 0)
(3.2717 -3.01125e-07 0)
(3.2717 -2.58715e-07 0)
(3.2717 -2.38401e-07 0)
(3.2717 -2.05661e-07 0)
(3.2717 -1.33603e-07 0)
(3.2717 -4.0172e-08 0)
(3.2717 2.87111e-08 0)
(3.2717 4.5934e-08 0)
(3.2717 3.26354e-08 0)
(3.2717 3.46164e-08 0)
(3.27171 7.58597e-08 0)
(3.27171 1.40447e-07 0)
(3.27171 1.92183e-07 0)
(3.27171 2.08878e-07 0)
(3.27171 2.0158e-07 0)
(3.27171 2.05598e-07 0)
(3.27171 2.42314e-07 0)
(3.27171 2.9263e-07 0)
(3.27171 3.13909e-07 0)
(3.27171 2.81898e-07 0)
(3.27171 2.17642e-07 0)
(3.27171 1.62825e-07 0)
(3.27171 1.25376e-07 0)
(3.27171 7.47027e-08 0)
(3.27171 -9.59069e-09 0)
(3.27171 -1.01904e-07 0)
(3.27171 -1.56325e-07 0)
(3.27171 -1.54003e-07 0)
(3.27171 -1.21499e-07 0)
(3.27171 -1.03335e-07 0)
(3.27171 -1.20796e-07 0)
(3.27171 -1.54849e-07 0)
(3.27171 -1.62765e-07 0)
(3.27171 -1.16681e-07 0)
(3.27171 -3.19875e-08 0)
(3.27171 4.1745e-08 0)
(3.27171 7.18607e-08 0)
(3.27171 7.48565e-08 0)
(3.27171 8.48945e-08 0)
(3.27171 1.03555e-07 0)
(3.27171 9.35835e-08 0)
(3.27171 2.14053e-08 0)
(3.27171 -9.69646e-08 0)
(3.27171 -2.03018e-07 0)
(3.27171 -2.53354e-07 0)
(3.27171 -2.51939e-07 0)
(3.27171 -2.27545e-07 0)
(3.27171 -2.04413e-07 0)
(3.2717 -1.85149e-07 0)
(3.2717 -1.56447e-07 0)
(3.2717 -1.07665e-07 0)
(3.2717 -5.00027e-08 0)
(3.2717 -1.44089e-08 0)
(3.2717 -1.65892e-08 0)
(3.2717 -2.83153e-08 0)
(3.2717 -8.90664e-09 0)
(3.2717 3.66753e-08 0)
(3.2717 6.6878e-08 0)
(3.2717 6.04444e-08 0)
(3.2717 3.2635e-08 0)
(3.2717 8.02064e-09 0)
(3.2717 1.41884e-09 0)
(3.2717 1.35634e-08 0)
(3.2717 3.0166e-08 0)
(3.2717 3.26329e-08 0)
(3.2717 2.23999e-08 0)
(3.2717 2.73448e-08 0)
(3.2717 6.86499e-08 0)
(3.2717 1.2826e-07 0)
(3.2717 1.6813e-07 0)
(3.2717 1.8024e-07 0)
(3.2717 1.82262e-07 0)
(3.2717 1.85571e-07 0)
(3.2717 1.88025e-07 0)
(3.2717 1.77918e-07 0)
(3.2717 1.46995e-07 0)
(3.2717 1.12195e-07 0)
(3.2717 8.50351e-08 0)
(3.2717 5.64293e-08 0)
(3.2717 3.92036e-08 0)
(3.2717 3.73557e-08 0)
(3.2717 3.28464e-08 0)
(3.2717 3.10045e-08 0)
(3.2717 4.10656e-08 0)
(3.2717 7.72215e-08 0)
(3.2717 1.22037e-07 0)
(3.2717 1.19577e-07 0)
(3.2717 6.90014e-08 0)
(3.2717 -2.32431e-08 0)
(3.2717 -1.19861e-07 0)
(3.2717 -2.71127e-07 0)
(3.2717 -4.28839e-07 0)
(3.2717 -6.42931e-07 0)
(3.2717 -7.49222e-07 0)
(3.4577 2.02236e-06 0)
(3.4577 2.64051e-06 0)
(3.4577 3.24369e-06 0)
(3.4577 3.75779e-06 0)
(3.4577 4.04366e-06 0)
(3.4577 4.55455e-06 0)
(3.4577 4.93614e-06 0)
(3.45769 5.0547e-06 0)
(3.45769 5e-06 0)
(3.45769 4.94879e-06 0)
(3.45769 4.75921e-06 0)
(3.45769 4.48295e-06 0)
(3.45769 4.26464e-06 0)
(3.45769 4.03213e-06 0)
(3.45769 3.7456e-06 0)
(3.45769 3.44871e-06 0)
(3.45769 3.09853e-06 0)
(3.45768 2.72588e-06 0)
(3.45768 2.41434e-06 0)
(3.45768 2.13795e-06 0)
(3.45768 1.88545e-06 0)
(3.45768 1.69166e-06 0)
(3.45768 1.54692e-06 0)
(3.45768 1.44558e-06 0)
(3.45768 1.35813e-06 0)
(3.45768 1.21595e-06 0)
(3.45768 1.04223e-06 0)
(3.45768 8.96504e-07 0)
(3.45768 7.7046e-07 0)
(3.45768 6.68835e-07 0)
(3.45768 5.91256e-07 0)
(3.45768 5.02652e-07 0)
(3.45768 4.18548e-07 0)
(3.45768 3.51828e-07 0)
(3.45768 2.74839e-07 0)
(3.45768 1.89753e-07 0)
(3.45768 8.96605e-08 0)
(3.45768 -4.12167e-08 0)
(3.45768 -1.49301e-07 0)
(3.45768 -1.88881e-07 0)
(3.45768 -1.85602e-07 0)
(3.45768 -1.73168e-07 0)
(3.45768 -1.72024e-07 0)
(3.45768 -1.75762e-07 0)
(3.45768 -1.39739e-07 0)
(3.45768 -5.93351e-08 0)
(3.45768 8.55708e-09 0)
(3.45768 2.59263e-08 0)
(3.45768 1.69228e-10 0)
(3.45768 -3.92033e-08 0)
(3.45768 -6.58133e-08 0)
(3.45768 -8.55204e-08 0)
(3.45768 -1.20085e-07 0)
(3.45768 -1.76429e-07 0)
(3.45768 -2.45371e-07 0)
(3.45768 -2.97832e-07 0)
(3.45768 -2.97446e-07 0)
(3.45768 -2.52464e-07 0)
(3.45768 -2.13168e-07 0)
(3.45768 -2.03747e-07 0)
(3.45768 -2.0259e-07 0)
(3.45768 -1.8102e-07 0)
(3.45768 -1.38696e-07 0)
(3.45768 -1.01132e-07 0)
(3.45768 -9.04607e-08 0)
(3.45768 -9.32283e-08 0)
(3.45768 -7.26652e-08 0)
(3.45768 -4.24169e-09 0)
(3.45768 1.02103e-07 0)
(3.45768 2.07068e-07 0)
(3.45768 2.70792e-07 0)
(3.45768 2.86723e-07 0)
(3.45768 2.85241e-07 0)
(3.45768 2.97094e-07 0)
(3.45768 3.15858e-07 0)
(3.45768 3.00027e-07 0)
(3.45768 2.21226e-07 0)
(3.45768 1.08236e-07 0)
(3.45768 2.06452e-08 0)
(3.45768 -1.581e-08 0)
(3.45768 -2.91206e-08 0)
(3.45768 -5.79768e-08 0)
(3.45768 -1.06548e-07 0)
(3.45768 -1.47919e-07 0)
(3.45768 -1.5703e-07 0)
(3.45768 -1.37345e-07 0)
(3.45768 -1.17208e-07 0)
(3.45768 -1.2133e-07 0)
(3.45768 -1.4554e-07 0)
(3.45768 -1.5464e-07 0)
(3.45768 -1.11771e-07 0)
(3.45768 -2.3104e-08 0)
(3.45768 6.12138e-08 0)
(3.45768 9.93526e-08 0)
(3.45768 9.77579e-08 0)
(3.45768 9.45352e-08 0)
(3.45768 1.06219e-07 0)
(3.45768 1.08402e-07 0)
(3.45768 7.02536e-08 0)
(3.45768 -1.61418e-09 0)
(3.45768 -6.64334e-08 0)
(3.45768 -9.11307e-08 0)
(3.45768 -7.41935e-08 0)
(3.45768 -4.08496e-08 0)
(3.45768 -2.19133e-08 0)
(3.45768 -3.08777e-08 0)
(3.45768 -4.75152e-08 0)
(3.45768 -3.65651e-08 0)
(3.45768 7.88725e-09 0)
(3.45768 4.86653e-08 0)
(3.45768 5.14575e-08 0)
(3.45768 3.05628e-08 0)
(3.45768 2.41692e-08 0)
(3.45768 4.29526e-08 0)
(3.45768 6.41447e-08 0)
(3.45768 6.5291e-08 0)
(3.45768 4.3908e-08 0)
(3.45768 1.38887e-08 0)
(3.45768 -4.40252e-09 0)
(3.45768 3.15916e-09 0)
(3.45768 2.79741e-08 0)
(3.45768 4.14585e-08 0)
(3.45768 3.57747e-08 0)
(3.45768 3.7409e-08 0)
(3.45768 7.3115e-08 0)
(3.45768 1.2471e-07 0)
(3.45768 1.4775e-07 0)
(3.45768 1.2882e-07 0)
(3.45768 9.68414e-08 0)
(3.45768 8.23032e-08 0)
(3.45768 8.72999e-08 0)
(3.45768 8.99992e-08 0)
(3.45768 8.20529e-08 0)
(3.45768 7.65614e-08 0)
(3.45768 6.87469e-08 0)
(3.45768 6.15281e-08 0)
(3.45768 7.45e-08 0)
(3.45768 9.17175e-08 0)
(3.45768 1.02475e-07 0)
(3.45768 1.14448e-07 0)
(3.45768 1.33408e-07 0)
(3.45768 1.39729e-07 0)
(3.45768 1.13507e-07 0)
(3.45768 7.50936e-08 0)
(3.45768 3.38429e-09 0)
(3.45768 -6.3918e-08 0)
(3.45768 -1.61588e-07 0)
(3.45768 -2.96975e-07 0)
(3.45768 -4.47285e-07 0)
(3.45768 -5.64248e-07 0)
(3.51966 2.13318e-06 0)
(3.51966 2.63724e-06 0)
(3.51967 2.9165e-06 0)
(3.51966 3.3742e-06 0)
(3.51967 3.89562e-06 0)
(3.51967 4.55855e-06 0)
(3.51967 5.127e-06 0)
(3.51966 5.47923e-06 0)
(3.51966 5.6623e-06 0)
(3.51966 5.80715e-06 0)
(3.51966 5.83343e-06 0)
(3.51966 5.65611e-06 0)
(3.51966 5.41016e-06 0)
(3.51966 5.1205e-06 0)
(3.51966 4.71309e-06 0)
(3.51966 4.26948e-06 0)
(3.51966 3.84563e-06 0)
(3.51966 3.42831e-06 0)
(3.51966 3.06051e-06 0)
(3.51966 2.72363e-06 0)
(3.51966 2.39576e-06 0)
(3.51966 2.13722e-06 0)
(3.51966 1.92706e-06 0)
(3.51966 1.7127e-06 0)
(3.51966 1.52319e-06 0)
(3.51966 1.34469e-06 0)
(3.51966 1.15352e-06 0)
(3.51966 9.91734e-07 0)
(3.51966 8.54382e-07 0)
(3.51966 7.2534e-07 0)
(3.51966 6.24581e-07 0)
(3.51966 5.24898e-07 0)
(3.51965 4.15935e-07 0)
(3.51965 3.27006e-07 0)
(3.51966 2.39208e-07 0)
(3.51966 1.46218e-07 0)
(3.51966 6.83755e-08 0)
(3.51966 -1.57033e-08 0)
(3.51966 -1.0165e-07 0)
(3.51965 -1.47306e-07 0)
(3.51965 -1.58108e-07 0)
(3.51965 -1.59203e-07 0)
(3.51965 -1.6223e-07 0)
(3.51965 -1.82274e-07 0)
(3.51965 -1.99738e-07 0)
(3.51965 -1.73616e-07 0)
(3.51965 -1.10105e-07 0)
(3.51965 -4.58305e-08 0)
(3.51965 -8.92234e-09 0)
(3.51965 -1.11171e-08 0)
(3.51965 -3.52177e-08 0)
(3.51965 -5.49207e-08 0)
(3.51965 -5.97992e-08 0)
(3.51965 -5.06556e-08 0)
(3.51965 -4.47089e-08 0)
(3.51965 -6.00981e-08 0)
(3.51965 -7.97804e-08 0)
(3.51965 -6.93236e-08 0)
(3.51965 -3.35696e-08 0)
(3.51965 -1.09438e-08 0)
(3.51965 -2.87807e-08 0)
(3.51965 -8.16456e-08 0)
(3.51965 -1.35961e-07 0)
(3.51965 -1.58948e-07 0)
(3.51965 -1.44222e-07 0)
(3.51965 -1.06561e-07 0)
(3.51965 -5.91529e-08 0)
(3.51965 -2.49771e-09 0)
(3.51965 7.18658e-08 0)
(3.51965 1.65396e-07 0)
(3.51965 2.55814e-07 0)
(3.51965 3.06121e-07 0)
(3.51965 2.9791e-07 0)
(3.51965 2.50055e-07 0)
(3.51965 2.00312e-07 0)
(3.51965 1.64981e-07 0)
(3.51965 1.2188e-07 0)
(3.51965 4.54687e-08 0)
(3.51965 -4.66785e-08 0)
(3.51965 -1.06865e-07 0)
(3.51965 -1.12269e-07 0)
(3.51965 -8.5077e-08 0)
(3.51965 -6.40351e-08 0)
(3.51965 -6.79292e-08 0)
(3.51965 -8.65919e-08 0)
(3.51965 -9.91054e-08 0)
(3.51965 -9.39389e-08 0)
(3.51965 -7.60353e-08 0)
(3.51965 -6.23646e-08 0)
(3.51965 -6.25829e-08 0)
(3.51965 -6.17682e-08 0)
(3.51965 -3.36285e-08 0)
(3.51965 2.45809e-08 0)
(3.51965 8.18079e-08 0)
(3.51965 1.04383e-07 0)
(3.51965 9.2826e-08 0)
(3.51965 7.74973e-08 0)
(3.51965 8.07281e-08 0)
(3.51965 9.51448e-08 0)
(3.51965 9.87459e-08 0)
(3.51965 8.24577e-08 0)
(3.51965 5.49103e-08 0)
(3.51965 3.3932e-08 0)
(3.51965 3.51236e-08 0)
(3.51965 5.42484e-08 0)
(3.51965 6.30714e-08 0)
(3.51965 3.89752e-08 0)
(3.51965 -2.32655e-09 0)
(3.51965 -2.3456e-08 0)
(3.51965 -1.41295e-08 0)
(3.51965 -4.13535e-09 0)
(3.51965 -1.81966e-08 0)
(3.51965 -4.15079e-08 0)
(3.51965 -4.51101e-08 0)
(3.51965 -2.4249e-08 0)
(3.51965 5.11334e-10 0)
(3.51965 1.19894e-08 0)
(3.51965 9.90906e-09 0)
(3.51965 1.91267e-09 0)
(3.51965 1.40209e-09 0)
(3.51965 2.23846e-08 0)
(3.51965 5.87656e-08 0)
(3.51965 8.69525e-08 0)
(3.51965 8.9665e-08 0)
(3.51965 7.24229e-08 0)
(3.51965 5.15675e-08 0)
(3.51965 3.28722e-08 0)
(3.51965 1.14539e-08 0)
(3.51965 -7.27126e-09 0)
(3.51965 -1.21839e-08 0)
(3.51965 -4.3788e-09 0)
(3.51965 5.44973e-09 0)
(3.51965 1.12055e-08 0)
(3.51965 1.91645e-08 0)
(3.51965 2.13306e-08 0)
(3.51965 1.23262e-08 0)
(3.51965 2.22081e-08 0)
(3.51965 4.86414e-08 0)
(3.51965 7.34481e-08 0)
(3.51965 8.46085e-08 0)
(3.51965 8.20459e-08 0)
(3.51965 7.73486e-08 0)
(3.51965 5.53913e-08 0)
(3.51965 2.30632e-08 0)
(3.51965 -3.15731e-09 0)