/*--------------------------------*- C++ -*----------------------------------*\
| =========                 |                                                 |
| \\      /  F ield         | OpenFOAM: The Open Source CFD Toolbox           |
|  \\    /   O peration     | Version:  2406                                  |
|   \\  /    A nd           | Website:  www.openfoam.com                      |
|    \\/     M anipulation  |                                                 |
\*---------------------------------------------------------------------------*/
FoamFile
{
    version     2.0;
    format      ascii;
    arch        "LSB;label=32;scalar=64";
    class       surfaceScalarField;
    location    "0.2";
    object      phi;
}
// * * * * * * * * * * * * * * * * * * * * * * * * * * * * * * * * * * * * * //

dimensions      [0 3 -1 0 0 0 0];

oriented        oriented;

internalField   nonuniform List<scalar> 
220
(
1.33246e-05
-8.69079e-10
1.33251e-05
-4.21933e-10
1.33246e-05
4.34594e-10
1.33248e-05
-1.73322e-10
1.3325e-05
-1.8791e-10
1.33249e-05
1.07534e-10
1.33248e-05
1.53762e-10
1.33248e-05
-1.45756e-11
1.33249e-05
-1.32143e-10
1.3325e-05
-6.00449e-11
1.33249e-05
1.01735e-10
1.33247e-05
1.36675e-10
1.33247e-05
-1.39906e-11
1.33249e-05
-1.57085e-10
1.3325e-05
-9.78181e-11
1.33249e-05
8.53883e-11
1.33248e-05
1.41074e-10
1.33248e-05
1.33647e-11
1.33249e-05
-1.04317e-10
1.3325e-05
-1.13711e-10
1.33249e-05
1.27414e-10
1.3325e-05
-1.1765e-10
1.33247e-05
3.11554e-10
1.33247e-05
7.08065e-12
-6.86465e-10
2.84848e-05
-7.03229e-10
2.84846e-05
-2.40635e-10
2.84847e-05
3.61173e-10
2.84848e-05
-2.51043e-10
2.84849e-05
-3.05816e-10
2.84849e-05
1.70091e-10
2.84847e-05
3.09011e-10
2.84847e-05
9.69779e-12
2.84849e-05
-2.66957e-10
2.8485e-05
-1.57977e-10
2.84849e-05
1.95021e-10
2.84847e-05
3.11547e-10
2.84847e-05
8.25156e-12
2.84848e-05
-3.28186e-10
2.8485e-05
-2.4181e-10
2.84849e-05
1.40778e-10
2.84848e-05
3.07986e-10
2.84847e-05
9.00684e-11
2.84848e-05
-2.25101e-10
2.8485e-05
-2.94182e-10
2.84849e-05
2.07337e-10
2.84847e-05
9.18741e-11
2.84848e-05
2.3628e-10
2.84849e-05
-9.20329e-11
-6.48542e-10
3.33822e-05
8.44009e-10
3.33815e-05
4.49336e-10
3.33821e-05
-2.76012e-10
3.3382e-05
-6.84199e-11
3.33819e-05
-2.03616e-10
3.33819e-05
9.73578e-11
3.3382e-05
2.7536e-10
3.33819e-05
5.34344e-11
3.33819e-05
-2.3592e-10
3.33819e-05
-1.88108e-10
3.3382e-05
1.57472e-10
3.3382e-05
3.19449e-10
3.33819e-05
5.18055e-11
3.33819e-05
-2.99405e-10
3.33819e-05
-2.65341e-10
3.3382e-05
8.50523e-11
3.3382e-05
2.95906e-10
3.33819e-05
1.58553e-10
3.33819e-05
-2.19931e-10
3.3382e-05
-3.46597e-10
3.33821e-05
1.4045e-10
3.33816e-05
4.87206e-10
3.33822e-05
-2.95023e-10
3.33823e-05
-2.13656e-10
5.3011e-10
2.84848e-05
9.31723e-10
2.84848e-05
5.22921e-10
2.84849e-05
-3.91015e-10
2.84848e-05
3.17454e-11
2.84846e-05
-4.35183e-11
2.84847e-05
1.74827e-11
2.84849e-05
1.09169e-10
2.84849e-05
4.10768e-11
2.84848e-05
-9.33539e-11
2.84847e-05
-9.55406e-11
2.84848e-05
5.49207e-11
2.8485e-05
1.44471e-10
2.8485e-05
4.00611e-11
2.84848e-05
-1.21818e-10
2.84846e-05
-1.25351e-10
2.84847e-05
1.79041e-11
2.84849e-05
1.25432e-10
2.8485e-05
9.66562e-11
2.84848e-05
-9.35213e-11
2.84847e-05
-1.79543e-10
2.84848e-05
3.50771e-11
2.84849e-05
3.82275e-10
2.84849e-05
-3.41553e-10
2.84849e-05
-1.62463e-10
6.38299e-10
1.33246e-05
1.33251e-05
1.33248e-05
1.33248e-05
1.33248e-05
1.33248e-05
1.33249e-05
1.33249e-05
1.33248e-05
1.33247e-05
1.33248e-05
1.33249e-05
1.3325e-05
1.33249e-05
1.33247e-05
1.33248e-05
1.33249e-05
1.3325e-05
1.33249e-05
1.33247e-05
1.33247e-05
1.33251e-05
1.33248e-05
1.33246e-05
)
;

boundaryField
{
    inlet
    {
        type            calculated;
        value           nonuniform List<scalar> 5(-1.33238e-05 -2.8485e-05 -3.33837e-05 -2.84849e-05 -1.33237e-05);
    }
    outlet
    {
        type            calculated;
        value           nonuniform List<scalar> 5(1.33253e-05 2.84848e-05 3.33811e-05 2.84848e-05 1.33253e-05);
    }
    walls
    {
        type            calculated;
        value           uniform 0;
    }
    frontAndBack
    {
        type            empty;
    }
}


// ************************************************************************* //
