/*--------------------------------*- C++ -*----------------------------------*\
| =========                 |                                                 |
| \\      /  F ield         | OpenFOAM: The Open Source CFD Toolbox           |
|  \\    /   O peration     | Version:  2406                                  |
|   \\  /    A nd           | Website:  www.openfoam.com                      |
|    \\/     M anipulation  |                                                 |
\*---------------------------------------------------------------------------*/
FoamFile
{
    version     2.0;
    format      ascii;
    arch        "LSB;label=32;scalar=64";
    class       volVectorField;
    location    "0.2";
    object      U;
}
// * * * * * * * * * * * * * * * * * * * * * * * * * * * * * * * * * * * * * //

dimensions      [0 1 -1 0 0 0 0];

internalField   nonuniform List<vector> 
125
(
(0.0666268 -1.77208e-06 0)
(0.0666139 -8.62817e-07 0)
(0.0666307 7.19496e-07 0)
(0.0666221 -2.56099e-07 0)
(0.0666243 -2.85859e-07 0)
(0.066625 1.68105e-07 0)
(0.0666243 2.14128e-07 0)
(0.0666237 -4.07859e-08 0)
(0.0666241 -1.86434e-07 0)
(0.0666248 -6.22162e-08 0)
(0.0666248 1.51831e-07 0)
(0.066624 1.71982e-07 0)
(0.0666235 -4.30349e-08 0)
(0.066624 -2.17378e-07 0)
(0.0666248 -1.09569e-07 0)
(0.0666249 1.41387e-07 0)
(0.0666243 1.85906e-07 0)
(0.0666238 -1.81814e-08 0)
(0.0666236 -1.41888e-07 0)
(0.0666251 -1.24414e-07 0)
(0.0666239 1.74565e-07 0)
(0.0666281 -2.65642e-07 0)
(0.066616 5.55919e-07 0)
(0.066633 5.27794e-08 0)
(0.0666203 -1.38129e-06 0)
(0.142443 -3.08502e-06 0)
(0.142394 -1.42299e-06 0)
(0.14244 1.27572e-06 0)
(0.142421 -6.00263e-07 0)
(0.142423 -7.44286e-07 0)
(0.142425 4.04425e-07 0)
(0.142425 6.60914e-07 0)
(0.142424 -3.24236e-08 0)
(0.142423 -5.69131e-07 0)
(0.142425 -2.89706e-07 0)
(0.142425 4.31411e-07 0)
(0.142424 6.1707e-07 0)
(0.142423 -3.91747e-08 0)
(0.142423 -6.8816e-07 0)
(0.142424 -4.56288e-07 0)
(0.142425 3.45775e-07 0)
(0.142425 6.28606e-07 0)
(0.142424 1.09012e-07 0)
(0.142422 -4.63152e-07 0)
(0.142426 -5.42124e-07 0)
(0.142423 4.60444e-07 0)
(0.142433 -1.85239e-07 0)
(0.142402 9.67534e-07 0)
(0.142451 -8.1137e-08 0)
(0.142411 -2.50537e-06 0)
(0.166937 1.9354e-07 0)
(0.166873 2.95261e-07 0)
(0.166929 1.09757e-07 0)
(0.166907 -4.41401e-07 0)
(0.166908 -7.27964e-07 0)
(0.16691 3.72204e-07 0)
(0.166911 8.31257e-07 0)
(0.16691 9.17913e-08 0)
(0.166909 -7.09703e-07 0)
(0.166909 -4.98765e-07 0)
(0.16691 4.93726e-07 0)
(0.16691 8.99059e-07 0)
(0.16691 8.88768e-08 0)
(0.166909 -8.87403e-07 0)
(0.166909 -7.2975e-07 0)
(0.16691 3.11486e-07 0)
(0.166911 8.58124e-07 0)
(0.16691 3.63036e-07 0)
(0.166908 -6.24957e-07 0)
(0.166911 -9.15166e-07 0)
(0.166908 4.82144e-07 0)
(0.16692 8.02604e-07 0)
(0.166883 -6.54653e-08 0)
(0.166945 -4.37171e-07 0)
(0.166892 -1.67339e-07 0)
(0.142442 3.36019e-06 0)
(0.142395 1.84838e-06 0)
(0.14244 -1.11011e-06 0)
(0.142422 -4.31903e-09 0)
(0.142422 -2.79543e-07 0)
(0.142423 1.29974e-07 0)
(0.142425 5.10683e-07 0)
(0.142425 1.48684e-07 0)
(0.142424 -4.38159e-07 0)
(0.142423 -4.06688e-07 0)
(0.142424 2.70919e-07 0)
(0.142425 6.44588e-07 0)
(0.142425 1.5369e-07 0)
(0.142424 -5.63933e-07 0)
(0.142423 -5.54024e-07 0)
(0.142423 1.0919e-07 0)
(0.142424 5.73691e-07 0)
(0.142425 3.83468e-07 0)
(0.142423 -4.24818e-07 0)
(0.142424 -7.53744e-07 0)
(0.142422 2.30327e-07 0)
(0.142433 1.30674e-06 0)
(0.142403 -1.08898e-06 0)
(0.142452 -4.98102e-07 0)
(0.142411 2.2844e-06 0)
(0.0666266 1.85339e-06 0)
(0.0666141 9.92251e-07 0)
(0.0666313 -6.64608e-07 0)
(0.0666226 9.20799e-08 0)
(0.0666235 -9.11697e-09 0)
(0.0666238 -4.38008e-09 0)
(0.0666244 1.25781e-07 0)
(0.0666247 6.35104e-08 0)
(0.0666244 -1.11691e-07 0)
(0.0666238 -1.34007e-07 0)
(0.0666238 5.82535e-08 0)
(0.0666244 1.90067e-07 0)
(0.066625 6.6712e-08 0)
(0.0666246 -1.48001e-07 0)
(0.0666239 -1.69524e-07 0)
(0.0666236 3.6592e-09 0)
(0.0666242 1.58018e-07 0)
(0.0666249 1.45957e-07 0)
(0.0666244 -1.22512e-07 0)
(0.0666242 -2.54719e-07 0)
(0.0666227 3.58339e-08 0)
(0.0666283 5.83205e-07 0)
(0.0666169 -6.12659e-07 0)
(0.0666332 -1.93864e-07 0)
(0.06662 1.32854e-06 0)
)
;

boundaryField
{
    inlet
    {
        type            zeroGradient;
    }
    outlet
    {
        type            zeroGradient;
    }
    walls
    {
        type            noSlip;
    }
    frontAndBack
    {
        type            empty;
    }
}


// ************************************************************************* //
