/*--------------------------------*- C++ -*----------------------------------*\
| =========                 |                                                 |
| \\      /  F ield         | OpenFOAM: The Open Source CFD Toolbox           |
|  \\    /   O peration     | Version:  2406                                  |
|   \\  /    A nd           | Website:  www.openfoam.com                      |
|    \\/     M anipulation  |                                                 |
\*---------------------------------------------------------------------------*/
FoamFile
{
    version     2.0;
    format      ascii;
    arch        "LSB;label=32;scalar=64";
    class       surfaceScalarField;
    location    "0.1";
    object      phi;
}
// * * * * * * * * * * * * * * * * * * * * * * * * * * * * * * * * * * * * * //

dimensions      [0 3 -1 0 0 0 0];

oriented        oriented;

internalField   nonuniform List<scalar> 
4335
(
1.42166e-05
-5.69491e-09
1.42211e-05
-4.4845e-09
1.42247e-05
-3.61468e-09
1.4228e-05
-3.29023e-09
1.42312e-05
-3.22675e-09
1.42344e-05
-3.23297e-09
1.42376e-05
-3.21121e-09
1.42408e-05
-3.14422e-09
1.42437e-05
-2.97387e-09
1.42465e-05
-2.73133e-09
1.42489e-05
-2.43982e-09
1.4251e-05
-2.10388e-09
1.42528e-05
-1.75707e-09
1.42542e-05
-1.43251e-09
1.42553e-05
-1.11911e-09
1.42562e-05
-8.44729e-10
1.42568e-05
-6.19753e-10
1.42572e-05
-4.32592e-10
1.42575e-05
-2.88135e-10
1.42577e-05
-1.85982e-10
1.42578e-05
-1.1429e-10
1.42579e-05
-6.64936e-11
1.42579e-05
-4.04834e-11
1.42579e-05
-3.17155e-11
1.4258e-05
-3.43822e-11
1.4258e-05
-4.69624e-11
1.42581e-05
-6.91135e-11
1.42582e-05
-9.38378e-11
1.42583e-05
-1.12503e-10
1.42584e-05
-1.26077e-10
1.42586e-05
-1.42024e-10
1.42587e-05
-1.61279e-10
1.42589e-05
-1.76733e-10
1.42591e-05
-1.84431e-10
1.42593e-05
-1.88212e-10
1.42595e-05
-1.91995e-10
1.42596e-05
-1.93535e-10
1.42598e-05
-1.88121e-10
1.426e-05
-1.74927e-10
1.42602e-05
-1.57383e-10
1.42603e-05
-1.38605e-10
1.42604e-05
-1.1796e-10
1.42605e-05
-9.19165e-11
1.42606e-05
-5.7592e-11
1.42606e-05
-1.4884e-11
1.42606e-05
3.27564e-11
1.42605e-05
8.29944e-11
1.42603e-05
1.33841e-10
1.42602e-05
1.84363e-10
1.42599e-05
2.33266e-10
1.42596e-05
2.78347e-10
1.42593e-05
3.16752e-10
1.4259e-05
3.45671e-10
1.42586e-05
3.63037e-10
1.42583e-05
3.67625e-10
1.42579e-05
3.58288e-10
1.42576e-05
3.33021e-10
1.42573e-05
2.89014e-10
1.4257e-05
2.23951e-10
1.42569e-05
1.37476e-10
1.42569e-05
3.164e-11
1.4257e-05
-8.90251e-11
1.42572e-05
-2.20074e-10
1.42576e-05
-3.55617e-10
1.42581e-05
-4.88409e-10
1.42587e-05
-6.09195e-10
1.42594e-05
-7.07775e-10
1.42601e-05
-7.75492e-10
1.42609e-05
-8.07718e-10
1.42617e-05
-8.04695e-10
1.42625e-05
-7.70434e-10
1.42632e-05
-7.1085e-10
1.42639e-05
-6.32492e-10
1.42644e-05
-5.42111e-10
1.42648e-05
-4.46364e-10
1.42652e-05
-3.51091e-10
1.42655e-05
-2.60463e-10
1.42656e-05
-1.76541e-10
1.42657e-05
-9.93239e-11
1.42658e-05
-2.63773e-11
1.42657e-05
4.46305e-11
1.42656e-05
1.18622e-10
1.42654e-05
1.98303e-10
1.42651e-05
2.85093e-10
1.42647e-05
3.78598e-10
1.42643e-05
4.76796e-10
1.42637e-05
5.75716e-10
1.4263e-05
6.68859e-10
1.42623e-05
7.47499e-10
1.42615e-05
8.02415e-10
1.42606e-05
8.26199e-10
1.42598e-05
8.14573e-10
1.42591e-05
7.66203e-10
1.42584e-05
6.82017e-10
1.42578e-05
5.65458e-10
1.42574e-05
4.237e-10
1.42571e-05
2.68086e-10
1.4257e-05
1.12198e-10
1.4257e-05
-3.17105e-11
1.42572e-05
-1.54918e-10
1.42574e-05
-2.52048e-10
1.42578e-05
-3.194e-10
1.42581e-05
-3.54636e-10
1.42585e-05
-3.57737e-10
1.42588e-05
-3.31616e-10
1.42591e-05
-2.81488e-10
1.42593e-05
-2.13713e-10
1.42594e-05
-1.34819e-10
1.42595e-05
-5.02805e-11
1.42594e-05
3.45364e-11
1.42593e-05
1.16405e-10
1.42591e-05
1.91455e-10
1.42589e-05
2.56056e-10
1.42586e-05
3.0667e-10
1.42582e-05
3.40274e-10
1.42579e-05
3.55453e-10
1.42575e-05
3.53348e-10
1.42572e-05
3.36523e-10
1.42569e-05
3.06711e-10
1.42566e-05
2.65172e-10
1.42564e-05
2.15327e-10
1.42562e-05
1.6225e-10
1.42561e-05
1.0832e-10
1.42561e-05
5.22642e-11
1.42561e-05
-5.30855e-12
1.42561e-05
-5.82931e-11
1.42562e-05
-1.00198e-10
1.42564e-05
-1.30643e-10
1.42565e-05
-1.54584e-10
1.42567e-05
-1.74762e-10
1.42569e-05
-1.87724e-10
1.42571e-05
-1.88592e-10
1.42572e-05
-1.7821e-10
1.42574e-05
-1.62633e-10
1.42576e-05
-1.45131e-10
1.42577e-05
-1.23738e-10
1.42578e-05
-1.00524e-10
1.42579e-05
-8.58749e-11
1.4258e-05
-8.66512e-11
1.42581e-05
-9.9408e-11
1.42582e-05
-1.24625e-10
1.42584e-05
-1.76982e-10
1.42586e-05
-2.71046e-10
1.42591e-05
-4.12687e-10
1.42597e-05
-6.12528e-10
1.42606e-05
-8.8825e-10
1.42618e-05
-1.25434e-09
1.42635e-05
-1.72566e-09
1.42659e-05
-2.4034e-09
-3.36674e-09
3.74307e-05
-1.29819e-08
3.74379e-05
-1.17159e-08
3.74453e-05
-1.09973e-08
3.74528e-05
-1.07969e-08
3.74604e-05
-1.0823e-08
3.7468e-05
-1.08758e-08
3.74756e-05
-1.0789e-08
3.74829e-05
-1.04872e-08
3.74899e-05
-9.93014e-09
3.74963e-05
-9.14871e-09
3.7502e-05
-8.17507e-09
3.7507e-05
-7.09443e-09
3.75112e-05
-5.96468e-09
3.75147e-05
-4.86856e-09
3.75174e-05
-3.85373e-09
3.75195e-05
-2.94966e-09
3.75211e-05
-2.18314e-09
3.75222e-05
-1.5603e-09
3.7523e-05
-1.07394e-09
3.75235e-05
-7.09694e-10
3.75238e-05
-4.53279e-10
3.7524e-05
-2.91666e-10
3.75242e-05
-2.04619e-10
3.75244e-05
-1.71977e-10
3.75245e-05
-1.82664e-10
3.75247e-05
-2.26237e-10
3.75249e-05
-2.86676e-10
3.75251e-05
-3.50549e-10
3.75255e-05
-4.13687e-10
3.75258e-05
-4.76534e-10
3.75262e-05
-5.37116e-10
3.75266e-05
-5.90694e-10
3.75271e-05
-6.33818e-10
3.75276e-05
-6.65985e-10
3.75281e-05
-6.86803e-10
3.75286e-05
-6.93504e-10
3.7529e-05
-6.83095e-10
3.75295e-05
-6.55942e-10
3.753e-05
-6.1504e-10
3.75304e-05
-5.61607e-10
3.75307e-05
-4.92727e-10
3.7531e-05
-4.03699e-10
3.75312e-05
-2.92037e-10
3.75313e-05
-1.58991e-10
3.75313e-05
-7.93564e-12
3.75312e-05
1.57495e-10
3.75309e-05
3.34361e-10
3.75305e-05
5.17909e-10
3.753e-05
7.00778e-10
3.75294e-05
8.73795e-10
3.75286e-05
1.02808e-09
3.75278e-05
1.15622e-09
3.75269e-05
1.2517e-09
3.75259e-05
1.30784e-09
3.7525e-05
1.3175e-09
3.75241e-05
1.27362e-09
3.75232e-05
1.16986e-09
3.75225e-05
1.001e-09
3.7522e-05
7.63314e-10
3.75217e-05
4.55539e-10
3.75216e-05
8.19919e-11
3.75219e-05
-3.46998e-10
3.75225e-05
-8.12317e-10
3.75234e-05
-1.2877e-09
3.75247e-05
-1.74259e-09
3.75262e-05
-2.14572e-09
3.7528e-05
-2.4686e-09
3.75299e-05
-2.68872e-09
3.75318e-05
-2.79274e-09
3.75338e-05
-2.77888e-09
3.75357e-05
-2.6572e-09
3.75374e-05
-2.44711e-09
3.75389e-05
-2.17297e-09
3.75403e-05
-1.85991e-09
3.75413e-05
-1.53074e-09
3.75422e-05
-1.2039e-09
3.75428e-05
-8.91862e-10
3.75433e-05
-6.00313e-10
3.75435e-05
-3.28308e-10
3.75435e-05
-6.92985e-11
3.75434e-05
1.85831e-10
3.75431e-05
4.48898e-10
3.75425e-05
7.29274e-10
3.75418e-05
1.03206e-09
3.75408e-05
1.35552e-09
3.75396e-05
1.69042e-09
3.75382e-05
2.02083e-09
3.75365e-05
2.32529e-09
3.75347e-05
2.57819e-09
3.75327e-05
2.75213e-09
3.75308e-05
2.82198e-09
3.75288e-05
2.76994e-09
3.7527e-05
2.58963e-09
3.75254e-05
2.28742e-09
3.75241e-05
1.88119e-09
3.75231e-05
1.39799e-09
3.75225e-05
8.72125e-10
3.75223e-05
3.42637e-10
3.75224e-05
-1.50868e-10
3.75228e-05
-5.74515e-10
3.75234e-05
-9.0417e-10
3.75243e-05
-1.12671e-09
3.75251e-05
-1.2385e-09
3.7526e-05
-1.2436e-09
3.75268e-05
-1.15247e-09
3.75275e-05
-9.80485e-10
3.75281e-05
-7.461e-10
3.75284e-05
-4.69294e-10
3.75285e-05
-1.70063e-10
3.75284e-05
1.32215e-10
3.75281e-05
4.21156e-10
3.75276e-05
6.82096e-10
3.7527e-05
9.02938e-10
3.75262e-05
1.07436e-09
3.75254e-05
1.19001e-09
3.75245e-05
1.24671e-09
3.75236e-05
1.24537e-09
3.75228e-05
1.19119e-09
3.7522e-05
1.09121e-09
3.75213e-05
9.51723e-10
3.75207e-05
7.79994e-10
3.75203e-05
5.87785e-10
3.752e-05
3.89194e-10
3.75199e-05
1.94103e-10
3.75198e-05
6.84123e-12
3.752e-05
-1.67912e-10
3.75202e-05
-3.21283e-10
3.75205e-05
-4.44413e-10
3.75208e-05
-5.34719e-10
3.75213e-05
-5.95684e-10
3.75217e-05
-6.31217e-10
3.75222e-05
-6.42264e-10
3.75226e-05
-6.29231e-10
3.75231e-05
-5.96287e-10
3.75235e-05
-5.50873e-10
3.75238e-05
-4.9863e-10
3.75242e-05
-4.44447e-10
3.75245e-05
-4.01422e-10
3.75248e-05
-3.91844e-10
3.75251e-05
-4.3679e-10
3.75256e-05
-5.53303e-10
3.75261e-05
-7.6495e-10
3.7527e-05
-1.10475e-09
3.75282e-05
-1.60203e-09
3.75298e-05
-2.27665e-09
3.75321e-05
-3.1453e-09
3.7535e-05
-4.20475e-09
3.75387e-05
-5.40027e-09
3.75429e-05
-6.65311e-09
-7.9182e-09
5.59954e-05
-1.8782e-08
5.60017e-05
-1.80133e-08
5.60089e-05
-1.81625e-08
5.60167e-05
-1.8592e-08
5.60249e-05
-1.89992e-08
5.60333e-05
-1.92363e-08
5.60416e-05
-1.91561e-08
5.60498e-05
-1.86609e-08
5.60576e-05
-1.76944e-08
5.60647e-05
-1.63157e-08
5.60712e-05
-1.46231e-08
5.60769e-05
-1.27262e-08
5.60816e-05
-1.07615e-08
5.60856e-05
-8.83347e-09
5.60888e-05
-7.03523e-09
5.60913e-05
-5.4346e-09
5.60932e-05
-4.0691e-09
5.60946e-05
-2.94709e-09
5.60956e-05
-2.06193e-09
5.60963e-05
-1.40017e-09
5.60967e-05
-9.36524e-10
5.60971e-05
-6.38334e-10
5.60974e-05
-4.72956e-10
5.60976e-05
-4.1221e-10
5.60978e-05
-4.31412e-10
5.60981e-05
-5.03924e-10
5.60984e-05
-6.04431e-10
5.60988e-05
-7.18918e-10
5.60992e-05
-8.42998e-10
5.60997e-05
-9.69858e-10
5.61003e-05
-1.08725e-09
5.61009e-05
-1.18603e-09
5.61015e-05
-1.26445e-09
5.61021e-05
-1.32274e-09
5.61028e-05
-1.35782e-09
5.61035e-05
-1.36481e-09
5.61041e-05
-1.34135e-09
5.61048e-05
-1.28865e-09
5.61054e-05
-1.20821e-09
5.61059e-05
-1.09817e-09
5.61064e-05
-9.53033e-10
5.61067e-05
-7.67347e-10
5.6107e-05
-5.39458e-10
5.61071e-05
-2.72145e-10
5.61071e-05
2.94123e-11
5.61068e-05
3.597e-10
5.61065e-05
7.12285e-10
5.61059e-05
1.07769e-09
5.61052e-05
1.44203e-09
5.61043e-05
1.78784e-09
5.61032e-05
2.09671e-09
5.6102e-05
2.35196e-09
5.61007e-05
2.5396e-09
5.60994e-05
2.64724e-09
5.6098e-05
2.66238e-09
5.60967e-05
2.57191e-09
5.60955e-05
2.36304e-09
5.60945e-05
2.02531e-09
5.60937e-05
1.55255e-09
5.60932e-05
9.44966e-10
5.60931e-05
2.12132e-10
5.60934e-05
-6.24109e-10
5.60941e-05
-1.52692e-09
5.60953e-05
-2.44547e-09
5.60969e-05
-3.31997e-09
5.60988e-05
-4.08948e-09
5.6101e-05
-4.70018e-09
5.61034e-05
-5.11188e-09
5.6106e-05
-5.30236e-09
5.61084e-05
-5.26966e-09
5.61108e-05
-5.03216e-09
5.6113e-05
-4.62539e-09
5.61149e-05
-4.09585e-09
5.61166e-05
-3.49323e-09
5.61179e-05
-2.8632e-09
5.61189e-05
-2.24202e-09
5.61197e-05
-1.65337e-09
5.61202e-05
-1.10698e-09
5.61205e-05
-5.99523e-10
5.61205e-05
-1.17555e-10
5.61203e-05
3.58019e-10
5.61199e-05
8.47846e-10
5.61193e-05
1.36931e-09
5.61184e-05
1.93223e-09
5.61172e-05
2.53465e-09
5.61157e-05
3.1601e-09
5.6114e-05
3.7778e-09
5.6112e-05
4.34562e-09
5.61097e-05
4.81474e-09
5.61074e-05
5.13497e-09
5.61049e-05
5.26086e-09
5.61025e-05
5.15877e-09
5.61003e-05
4.814e-09
5.60984e-05
4.23589e-09
5.60968e-05
3.45827e-09
5.60956e-05
2.53507e-09
5.6095e-05
1.53323e-09
5.60948e-05
5.25443e-10
5.6095e-05
-4.16505e-10
5.60957e-05
-1.22896e-09
5.60967e-05
-1.86317e-09
5.60978e-05
-2.28987e-09
5.60991e-05
-2.4999e-09
5.61003e-05
-2.50149e-09
5.61015e-05
-2.31631e-09
5.61025e-05
-1.97508e-09
5.61033e-05
-1.51347e-09
5.61038e-05
-9.68957e-10
5.6104e-05
-3.78836e-10
5.61039e-05
2.20255e-10
5.61035e-05
7.95058e-10
5.61029e-05
1.31552e-09
5.6102e-05
1.75694e-09
5.6101e-05
2.10132e-09
5.60998e-05
2.3379e-09
5.60986e-05
2.46192e-09
5.60974e-05
2.4737e-09
5.60962e-05
2.37976e-09
5.60951e-05
2.19306e-09
5.60941e-05
1.92961e-09
5.60933e-05
1.60498e-09
5.60927e-05
1.23612e-09
5.60922e-05
8.44624e-10
5.60919e-05
4.5375e-10
5.60919e-05
8.14966e-11
5.6092e-05
-2.61376e-10
5.60922e-05
-5.66473e-10
5.60926e-05
-8.23584e-10
5.60931e-05
-1.02274e-09
5.60936e-05
-1.1596e-09
5.60942e-05
-1.23766e-09
5.60948e-05
-1.26456e-09
5.60955e-05
-1.24663e-09
5.60961e-05
-1.18958e-09
5.60967e-05
-1.10531e-09
5.60972e-05
-1.01239e-09
5.60977e-05
-9.27568e-10
5.60981e-05
-8.65751e-10
5.60986e-05
-8.52604e-10
5.60991e-05
-9.29522e-10
5.60997e-05
-1.14197e-09
5.61004e-05
-1.53131e-09
5.61015e-05
-2.14142e-09
5.61029e-05
-3.01666e-09
5.61048e-05
-4.18568e-09
5.61073e-05
-5.64472e-09
5.61104e-05
-7.33951e-09
5.61141e-05
-9.11409e-09
5.61181e-05
-1.06538e-08
-1.18283e-08
7.04312e-05
-2.12275e-08
7.04341e-05
-2.09457e-08
7.04379e-05
-2.19536e-08
7.04424e-05
-2.31127e-08
7.04474e-05
-2.39926e-08
7.04526e-05
-2.45077e-08
7.0458e-05
-2.45216e-08
7.04633e-05
-2.39379e-08
7.04684e-05
-2.27834e-08
7.04731e-05
-2.10631e-08
7.04774e-05
-1.89384e-08
7.04813e-05
-1.65505e-08
7.04846e-05
-1.40578e-08
7.04873e-05
-1.15971e-08
7.04896e-05
-9.29653e-09
7.04914e-05
-7.23958e-09
7.04928e-05
-5.46664e-09
7.04939e-05
-4.00313e-09
7.04947e-05
-2.85313e-09
7.04953e-05
-1.99399e-09
7.04957e-05
-1.38607e-09
7.04961e-05
-9.90935e-10
7.04964e-05
-7.74131e-10
7.04966e-05
-6.98448e-10
7.04969e-05
-7.26244e-10
7.04973e-05
-8.24838e-10
7.04976e-05
-9.68006e-10
7.0498e-05
-1.13672e-09
7.04985e-05
-1.31747e-09
7.0499e-05
-1.49737e-09
7.04996e-05
-1.66291e-09
7.05002e-05
-1.80422e-09
7.05009e-05
-1.91686e-09
7.05015e-05
-1.99817e-09
7.05022e-05
-2.04443e-09
7.05029e-05
-2.05182e-09
7.05036e-05
-2.01784e-09
7.05042e-05
-1.94037e-09
7.05048e-05
-1.8161e-09
7.05054e-05
-1.64033e-09
7.05058e-05
-1.40842e-09
7.05062e-05
-1.11744e-09
7.05064e-05
-7.66842e-10
7.05065e-05
-3.5831e-10
7.05064e-05
1.04229e-10
7.05062e-05
6.13724e-10
7.05057e-05
1.15868e-09
7.05051e-05
1.72246e-09
7.05043e-05
2.28362e-09
7.05032e-05
2.81701e-09
7.0502e-05
3.29568e-09
7.05007e-05
3.69348e-09
7.04992e-05
3.98713e-09
7.04977e-05
4.15662e-09
7.04962e-05
4.18371e-09
7.04947e-05
4.05032e-09
7.04933e-05
3.73835e-09
7.04921e-05
3.23184e-09
7.04912e-05
2.52092e-09
7.04905e-05
1.60663e-09
7.04902e-05
5.05641e-10
7.04904e-05
-7.46164e-10
7.04909e-05
-2.09222e-09
7.04919e-05
-3.45725e-09
7.04934e-05
-4.75354e-09
7.04952e-05
-5.89098e-09
7.04972e-05
-6.78903e-09
7.04995e-05
-7.3877e-09
7.05019e-05
-7.65513e-09
7.05042e-05
-7.59069e-09
7.05064e-05
-7.22375e-09
7.05084e-05
-6.60842e-09
7.05101e-05
-5.81506e-09
7.05115e-05
-4.91954e-09
7.05126e-05
-3.99234e-09
7.05135e-05
-3.08967e-09
7.05141e-05
-2.24778e-09
7.05145e-05
-1.48093e-09
7.05146e-05
-7.82618e-10
7.05146e-05
-1.30076e-10
7.05145e-05
5.08861e-10
7.05142e-05
1.16799e-09
7.05137e-05
1.87544e-09
7.0513e-05
2.64745e-09
7.0512e-05
3.48315e-09
7.05108e-05
4.3609e-09
7.05094e-05
5.23738e-09
7.05077e-05
6.0508e-09
7.05057e-05
6.72786e-09
7.05037e-05
7.19324e-09
7.05016e-05
7.37962e-09
7.04995e-05
7.23739e-09
7.04976e-05
6.74333e-09
7.04959e-05
5.90726e-09
7.04946e-05
4.77457e-09
7.04937e-05
3.42258e-09
7.04933e-05
1.95085e-09
7.04933e-05
4.68507e-10
7.04938e-05
-9.18061e-10
7.04947e-05
-2.11534e-09
7.04959e-05
-3.05092e-09
7.04973e-05
-3.67925e-09
7.04988e-05
-3.98358e-09
7.05002e-05
-3.97364e-09
7.05016e-05
-3.68053e-09
7.05028e-05
-3.15022e-09
7.05037e-05
-2.43708e-09
7.05043e-05
-1.59827e-09
7.05046e-05
-6.90137e-10
7.05046e-05
2.33476e-10
7.05043e-05
1.12276e-09
7.05037e-05
1.93308e-09
7.05028e-05
2.62681e-09
7.05017e-05
3.17548e-09
7.05005e-05
3.56143e-09
7.04992e-05
3.77699e-09
7.04979e-05
3.82204e-09
7.04965e-05
3.70367e-09
7.04953e-05
3.43839e-09
7.04942e-05
3.05137e-09
7.04932e-05
2.5705e-09
7.04924e-05
2.0221e-09
7.04918e-05
1.43307e-09
7.04914e-05
8.33747e-10
7.04913e-05
2.54463e-10
7.04913e-05
-2.80855e-10
7.04915e-05
-7.56685e-10
7.04918e-05
-1.16202e-09
7.04923e-05
-1.48657e-09
7.04928e-05
-1.72232e-09
7.04935e-05
-1.86847e-09
7.04941e-05
-1.93272e-09
7.04948e-05
-1.92574e-09
7.04955e-05
-1.85683e-09
7.04961e-05
-1.73989e-09
7.04967e-05
-1.60013e-09
7.04973e-05
-1.46736e-09
7.04978e-05
-1.36792e-09
7.04982e-05
-1.33223e-09
7.04987e-05
-1.40654e-09
7.04992e-05
-1.65011e-09
7.04998e-05
-2.12216e-09
7.05005e-05
-2.87634e-09
7.05015e-05
-3.96303e-09
7.05027e-05
-5.40973e-09
7.05043e-05
-7.18947e-09
7.05061e-05
-9.20634e-09
7.05082e-05
-1.12207e-08
7.05104e-05
-1.28024e-08
-1.37732e-08
8.11833e-05
-1.93055e-08
8.11816e-05
-1.92951e-08
8.11804e-05
-2.07068e-08
8.11795e-05
-2.22361e-08
8.11788e-05
-2.33605e-08
8.11784e-05
-2.40357e-08
8.1178e-05
-2.41846e-08
8.11778e-05
-2.3702e-08
8.11777e-05
-2.26228e-08
8.11776e-05
-2.09906e-08
8.11776e-05
-1.89517e-08
8.11777e-05
-1.66358e-08
8.11778e-05
-1.41879e-08
8.1178e-05
-1.17703e-08
8.11782e-05
-9.50718e-09
8.11784e-05
-7.46623e-09
8.11787e-05
-5.69741e-09
8.11789e-05
-4.23824e-09
8.11791e-05
-3.08896e-09
8.11794e-05
-2.22233e-09
8.11796e-05
-1.60705e-09
8.11798e-05
-1.21309e-09
8.118e-05
-1.00525e-09
8.11803e-05
-9.43149e-10
8.11805e-05
-9.90065e-10
8.11809e-05
-1.11717e-09
8.11812e-05
-1.29888e-09
8.11816e-05
-1.51023e-09
8.1182e-05
-1.7304e-09
8.11824e-05
-1.94473e-09
8.11829e-05
-2.14215e-09
8.11834e-05
-2.31352e-09
8.11839e-05
-2.45202e-09
8.11845e-05
-2.55236e-09
8.1185e-05
-2.60946e-09
8.11856e-05
-2.61843e-09
8.11862e-05
-2.57479e-09
8.11867e-05
-2.4736e-09
8.11872e-05
-2.30883e-09
8.11876e-05
-2.07451e-09
8.1188e-05
-1.76658e-09
8.11883e-05
-1.38334e-09
8.11884e-05
-9.2451e-10
8.11885e-05
-3.90627e-10
8.11883e-05
2.15624e-10
8.11881e-05
8.86506e-10
8.11876e-05
1.60674e-09
8.1187e-05
2.35305e-09
8.11862e-05
3.09595e-09
8.11852e-05
3.80246e-09
8.11841e-05
4.43857e-09
8.11828e-05
4.9712e-09
8.11814e-05
5.3697e-09
8.11799e-05
5.60653e-09
8.11785e-05
5.65697e-09
8.1177e-05
5.49797e-09
8.11756e-05
5.10767e-09
8.11744e-05
4.46688e-09
8.11734e-05
3.5634e-09
8.11726e-05
2.39883e-09
8.11721e-05
9.9559e-10
8.11719e-05
-5.98255e-10
8.11722e-05
-2.30822e-09
8.11727e-05
-4.03734e-09
8.11736e-05
-5.67429e-09
8.11749e-05
-7.10521e-09
8.11763e-05
-8.22774e-09
8.11779e-05
-8.96511e-09
8.11795e-05
-9.27698e-09
8.11811e-05
-9.16449e-09
8.11825e-05
-8.66855e-09
8.11838e-05
-7.86242e-09
8.11848e-05
-6.84015e-09
8.11856e-05
-5.70279e-09
8.11861e-05
-4.54427e-09
8.11865e-05
-3.4393e-09
8.11867e-05
-2.43546e-09
8.11867e-05
-1.55027e-09
8.11867e-05
-7.72958e-10
8.11867e-05
-7.01606e-11
8.11866e-05
6.05307e-10
8.11864e-05
1.3037e-09
8.11862e-05
2.06772e-09
8.1186e-05
2.92338e-09
8.11856e-05
3.87355e-09
8.11851e-05
4.89415e-09
8.11844e-05
5.9334e-09
8.11835e-05
6.91495e-09
8.11825e-05
7.74565e-09
8.11814e-05
8.32744e-09
8.11802e-05
8.57153e-09
8.1179e-05
8.41201e-09
8.11779e-05
7.81685e-09
8.1177e-05
6.79489e-09
8.11764e-05
5.39847e-09
8.11761e-05
3.7203e-09
8.11762e-05
1.88376e-09
8.11766e-05
2.7687e-11
8.11774e-05
-1.71073e-09
8.11785e-05
-3.21086e-09
8.11798e-05
-4.3795e-09
8.11813e-05
-5.15745e-09
8.11828e-05
-5.52156e-09
8.11843e-05
-5.48224e-09
8.11857e-05
-5.07733e-09
8.11869e-05
-4.36435e-09
8.11879e-05
-3.4126e-09
8.11886e-05
-2.29614e-09
8.1189e-05
-1.08852e-09
8.11891e-05
1.40438e-10
8.11889e-05
1.32662e-09
8.11884e-05
2.41332e-09
8.11877e-05
3.35265e-09
8.11868e-05
4.10692e-09
8.11857e-05
4.6505e-09
8.11845e-05
4.97111e-09
8.11833e-05
5.06824e-09
8.1182e-05
4.95051e-09
8.11808e-05
4.63596e-09
8.11797e-05
4.15381e-09
8.11787e-05
3.54147e-09
8.11779e-05
2.83721e-09
8.11773e-05
2.07621e-09
8.11768e-05
1.29299e-09
8.11765e-05
5.23792e-10
8.11764e-05
-1.96785e-10
8.11765e-05
-8.41743e-10
8.11767e-05
-1.39363e-09
8.11771e-05
-1.84139e-09
8.11776e-05
-2.17738e-09
8.11781e-05
-2.39872e-09
8.11787e-05
-2.51052e-09
8.11793e-05
-2.52513e-09
8.11799e-05
-2.45714e-09
8.11805e-05
-2.32276e-09
8.1181e-05
-2.14508e-09
8.11815e-05
-1.95513e-09
8.1182e-05
-1.78848e-09
8.11823e-05
-1.68496e-09
8.11826e-05
-1.69061e-09
8.11828e-05
-1.86098e-09
8.11829e-05
-2.257e-09
8.1183e-05
-2.935e-09
8.11829e-05
-3.94456e-09
8.11828e-05
-5.30198e-09
8.11826e-05
-6.97728e-09
8.11823e-05
-8.86815e-09
8.11818e-05
-1.07138e-08
8.11811e-05
-1.20815e-08
-1.27937e-08
8.86069e-05
-1.3138e-08
8.86008e-05
-1.32363e-08
8.85945e-05
-1.44207e-08
8.8588e-05
-1.5691e-08
8.85813e-05
-1.6658e-08
8.85745e-05
-1.72831e-08
8.85678e-05
-1.74896e-08
8.85613e-05
-1.72328e-08
8.85552e-05
-1.6518e-08
8.85496e-05
-1.54045e-08
8.85446e-05
-1.3966e-08
8.85404e-05
-1.2325e-08
8.85368e-05
-1.05946e-08
8.85338e-05
-8.86834e-09
8.85316e-05
-7.23179e-09
8.85299e-05
-5.7482e-09
8.85286e-05
-4.46494e-09
8.85278e-05
-3.40449e-09
8.85272e-05
-2.56269e-09
8.85269e-05
-1.92847e-09
8.85268e-05
-1.48976e-09
8.85268e-05
-1.22528e-09
8.85269e-05
-1.10598e-09
8.85271e-05
-1.10323e-09
8.85273e-05
-1.19173e-09
8.85275e-05
-1.34821e-09
8.85277e-05
-1.5502e-09
8.8528e-05
-1.77645e-09
8.85283e-05
-2.00885e-09
8.85286e-05
-2.23373e-09
8.85289e-05
-2.44095e-09
8.85292e-05
-2.62266e-09
8.85295e-05
-2.77231e-09
8.85298e-05
-2.88319e-09
8.85302e-05
-2.94743e-09
8.85305e-05
-2.95683e-09
8.85308e-05
-2.90426e-09
8.85311e-05
-2.78371e-09
8.85314e-05
-2.58941e-09
8.85317e-05
-2.3157e-09
8.85319e-05
-1.95786e-09
8.8532e-05
-1.5126e-09
8.85321e-05
-9.78022e-10
8.8532e-05
-3.53892e-10
8.85319e-05
3.56934e-10
8.85316e-05
1.14563e-09
8.85312e-05
1.99471e-09
8.85307e-05
2.87694e-09
8.85301e-05
3.7571e-09
8.85293e-05
4.59587e-09
8.85283e-05
5.35365e-09
8.85273e-05
5.99277e-09
8.85262e-05
6.47824e-09
8.8525e-05
6.77769e-09
8.85238e-05
6.86123e-09
8.85226e-05
6.70122e-09
8.85215e-05
6.27257e-09
8.85204e-05
5.55449e-09
8.85194e-05
4.53473e-09
8.85186e-05
3.21652e-09
8.85179e-05
1.62652e-09
8.85175e-05
-1.79292e-10
8.85173e-05
-2.11431e-09
8.85173e-05
-4.06606e-09
8.85176e-05
-5.90619e-09
8.8518e-05
-7.50439e-09
8.85185e-05
-8.74422e-09
8.85191e-05
-9.53891e-09
8.85197e-05
-9.84387e-09
8.85202e-05
-9.66328e-09
8.85205e-05
-9.04878e-09
8.85208e-05
-8.09072e-09
8.85208e-05
-6.90402e-09
8.85207e-05
-5.6113e-09
8.85205e-05
-4.32591e-09
8.85202e-05
-3.13723e-09
8.85199e-05
-2.10083e-09
8.85195e-05
-1.23472e-09
8.85193e-05
-5.21807e-10
8.85191e-05
8.29856e-11
8.85191e-05
6.42219e-10
8.85192e-05
1.22338e-09
8.85194e-05
1.88569e-09
8.85196e-05
2.66817e-09
8.85199e-05
3.58105e-09
8.85202e-05
4.60152e-09
8.85205e-05
5.67361e-09
8.85207e-05
6.71231e-09
8.85208e-05
7.61189e-09
8.85209e-05
8.25857e-09
8.85209e-05
8.54662e-09
8.85209e-05
8.39516e-09
8.8521e-05
7.76223e-09
8.85211e-05
6.6533e-09
8.85214e-05
5.12341e-09
8.85218e-05
3.27315e-09
8.85225e-05
1.23864e-09
8.85233e-05
-8.24103e-10
8.85244e-05
-2.75807e-09
8.85256e-05
-4.42362e-09
8.85269e-05
-5.71228e-09
8.85283e-05
-6.5548e-09
8.85297e-05
-6.92347e-09
8.85311e-05
-6.82929e-09
8.85323e-05
-6.31487e-09
8.85334e-05
-5.44535e-09
8.85343e-05
-4.29938e-09
8.8535e-05
-2.96159e-09
8.85354e-05
-1.51664e-09
8.85356e-05
-4.536e-11
8.85355e-05
1.37793e-09
8.85352e-05
2.68773e-09
8.85348e-05
3.82902e-09
8.85341e-05
4.75786e-09
8.85333e-05
5.44222e-09
8.85324e-05
5.86434e-09
8.85315e-05
6.02209e-09
8.85305e-05
5.92638e-09
8.85295e-05
5.59775e-09
8.85286e-05
5.06614e-09
8.85278e-05
4.37142e-09
8.85271e-05
3.5591e-09
8.85265e-05
2.67376e-09
8.8526e-05
1.75652e-09
8.85257e-05
8.46796e-10
8.85255e-05
-1.71773e-11
8.85255e-05
-8.01433e-10
8.85255e-05
-1.48016e-09
8.85257e-05
-2.03711e-09
8.8526e-05
-2.46389e-09
8.85264e-05
-2.7571e-09
8.85268e-05
-2.91857e-09
8.85272e-05
-2.95879e-09
8.85277e-05
-2.89609e-09
8.85281e-05
-2.75014e-09
8.85285e-05
-2.54008e-09
8.85288e-05
-2.29104e-09
8.85291e-05
-2.03831e-09
8.85292e-05
-1.8223e-09
8.85292e-05
-1.68218e-09
8.8529e-05
-1.66185e-09
8.85286e-05
-1.81265e-09
8.85278e-05
-2.1834e-09
8.85267e-05
-2.81078e-09
8.85251e-05
-3.70737e-09
8.8523e-05
-4.85035e-09
8.85203e-05
-6.15829e-09
8.8517e-05
-7.44192e-09
8.85133e-05
-8.37952e-09
-8.82729e-09
9.29585e-05
-3.96559e-09
9.29493e-05
-4.01736e-09
9.29394e-05
-4.49857e-09
9.29287e-05
-5.02198e-09
9.29175e-05
-5.44211e-09
9.29059e-05
-5.74096e-09
9.28944e-05
-5.90037e-09
9.2883e-05
-5.90825e-09
9.28723e-05
-5.75433e-09
9.28623e-05
-5.47078e-09
9.28534e-05
-5.05979e-09
9.28457e-05
-4.56384e-09
9.28391e-05
-4.02919e-09
9.28337e-05
-3.47786e-09
9.28294e-05
-2.93806e-09
9.28261e-05
-2.44147e-09
9.28236e-05
-2.00841e-09
9.28219e-05
-1.64572e-09
9.28207e-05
-1.35793e-09
9.28199e-05
-1.1535e-09
9.28195e-05
-1.03571e-09
9.28193e-05
-9.97188e-10
9.28192e-05
-1.02826e-09
9.28192e-05
-1.12194e-09
9.28193e-05
-1.26815e-09
9.28194e-05
-1.45185e-09
9.28196e-05
-1.65918e-09
9.28197e-05
-1.8798e-09
9.28198e-05
-2.10355e-09
9.28198e-05
-2.31931e-09
9.28199e-05
-2.51782e-09
9.282e-05
-2.6929e-09
9.28201e-05
-2.83914e-09
9.28201e-05
-2.94907e-09
9.28202e-05
-3.01272e-09
9.28202e-05
-3.01962e-09
9.28203e-05
-2.96112e-09
9.28204e-05
-2.83106e-09
9.28204e-05
-2.62447e-09
9.28204e-05
-2.33605e-09
9.28204e-05
-1.95974e-09
9.28204e-05
-1.48977e-09
9.28204e-05
-9.22029e-10
9.28203e-05
-2.5548e-10
9.28201e-05
5.06455e-10
9.28199e-05
1.35352e-09
9.28196e-05
2.26676e-09
9.28193e-05
3.21742e-09
9.28189e-05
4.16835e-09
9.28184e-05
5.07769e-09
9.28178e-05
5.90306e-09
9.28172e-05
6.60435e-09
9.28166e-05
7.14465e-09
9.28158e-05
7.4898e-09
9.28151e-05
7.60776e-09
9.28143e-05
7.46846e-09
9.28136e-05
7.04484e-09
9.28128e-05
6.31537e-09
9.28121e-05
5.26883e-09
9.28113e-05
3.91078e-09
9.28107e-05
2.27084e-09
9.28101e-05
4.08577e-10
9.28096e-05
-1.58462e-09
9.28091e-05
-3.58962e-09
9.28087e-05
-5.47014e-09
9.28083e-05
-7.08818e-09
9.28078e-05
-8.32173e-09
9.28074e-05
-9.08156e-09
9.28069e-05
-9.32437e-09
9.28063e-05
-9.05954e-09
9.28056e-05
-8.34808e-09
9.28048e-05
-7.29326e-09
9.28039e-05
-6.02501e-09
9.2803e-05
-4.68083e-09
9.2802e-05
-3.38669e-09
9.28011e-05
-2.24067e-09
9.28003e-05
-1.30181e-09
9.27997e-05
-5.85779e-10
9.27992e-05
-6.75649e-11
9.2799e-05
3.10012e-10
9.2799e-05
6.23984e-10
9.27993e-05
9.57234e-10
9.27998e-05
1.38398e-09
9.28005e-05
1.9565e-09
9.28014e-05
2.69486e-09
9.28024e-05
3.58146e-09
9.28035e-05
4.56097e-09
9.28047e-05
5.54533e-09
9.28059e-05
6.42337e-09
9.28071e-05
7.07403e-09
9.28082e-05
7.3826e-09
9.28094e-05
7.25825e-09
9.28105e-05
6.64984e-09
9.28116e-05
5.55656e-09
9.28127e-05
4.031e-09
9.28138e-05
2.17448e-09
9.28149e-05
1.25891e-10
9.2816e-05
-1.95429e-09
9.28171e-05
-3.90302e-09
9.28183e-05
-5.57378e-09
9.28194e-05
-6.8518e-09
9.28205e-05
-7.66334e-09
9.28216e-05
-7.97852e-09
9.28226e-05
-7.8085e-09
9.28235e-05
-7.19803e-09
9.28242e-05
-6.21566e-09
9.28249e-05
-4.94383e-09
9.28254e-05
-3.47093e-09
9.28257e-05
-1.88527e-09
9.2826e-05
-2.71255e-10
9.28261e-05
1.29295e-09
9.2826e-05
2.73767e-09
9.28258e-05
4.00413e-09
9.28255e-05
5.04564e-09
9.28252e-05
5.82757e-09
9.28247e-05
6.32843e-09
9.28242e-05
6.54277e-09
9.28236e-05
6.48167e-09
9.2823e-05
6.16845e-09
9.28225e-05
5.6341e-09
9.28219e-05
4.91657e-09
9.28214e-05
4.06095e-09
9.2821e-05
3.11628e-09
9.28206e-05
2.13046e-09
9.28203e-05
1.14695e-09
9.28201e-05
2.04526e-10
9.28199e-05
-6.61654e-10
9.28199e-05
-1.42115e-09
9.28199e-05
-2.05227e-09
9.282e-05
-2.54403e-09
9.28201e-05
-2.89244e-09
9.28203e-05
-3.09684e-09
9.28205e-05
-3.1638e-09
9.28207e-05
-3.1104e-09
9.28209e-05
-2.95663e-09
9.28211e-05
-2.71884e-09
9.28212e-05
-2.41589e-09
9.28213e-05
-2.07511e-09
9.28212e-05
-1.7266e-09
9.28209e-05
-1.39516e-09
9.28203e-05
-1.10558e-09
9.28194e-05
-8.93316e-10
9.2818e-05
-7.9086e-10
9.2816e-05
-8.14319e-10
9.28133e-05
-9.78799e-10
9.28097e-05
-1.28094e-09
9.28052e-05
-1.6891e-09
9.27999e-05
-2.13082e-09
9.2794e-05
-2.47201e-09
-2.64958e-09
9.43924e-05
6.23536e-09
9.43821e-05
6.25581e-09
9.43709e-05
6.69296e-09
9.43588e-05
7.13708e-09
9.43459e-05
7.41828e-09
9.43327e-05
7.53177e-09
9.43193e-05
7.44819e-09
9.43062e-05
7.17614e-09
9.42938e-05
6.71599e-09
9.42822e-05
6.0848e-09
9.42718e-05
5.33754e-09
9.42627e-05
4.52229e-09
9.4255e-05
3.68725e-09
9.42487e-05
2.8846e-09
9.42436e-05
2.14964e-09
9.42396e-05
1.49969e-09
9.42367e-05
9.45881e-10
9.42345e-05
4.90947e-10
9.42331e-05
1.224e-10
9.42321e-05
-1.80716e-10
9.42315e-05
-4.35458e-10
9.42311e-05
-6.54665e-10
9.42309e-05
-8.5294e-10
9.42309e-05
-1.04495e-09
9.42308e-05
-1.23786e-09
9.42308e-05
-1.43169e-09
9.42308e-05
-1.62604e-09
9.42307e-05
-1.82146e-09
9.42307e-05
-2.01528e-09
9.42305e-05
-2.20115e-09
9.42304e-05
-2.37301e-09
9.42302e-05
-2.52639e-09
9.42301e-05
-2.65586e-09
9.42299e-05
-2.75304e-09
9.42296e-05
-2.80757e-09
9.42294e-05
-2.80951e-09
9.42292e-05
-2.75091e-09
9.4229e-05
-2.62561e-09
9.42288e-05
-2.4278e-09
9.42287e-05
-2.15086e-09
9.42285e-05
-1.78745e-09
9.42283e-05
-1.33079e-09
9.42282e-05
-7.75916e-10
9.4228e-05
-1.20971e-10
9.42279e-05
6.30885e-10
9.42278e-05
1.46905e-09
9.42277e-05
2.37388e-09
9.42276e-05
3.31669e-09
9.42275e-05
4.26156e-09
9.42274e-05
5.16841e-09
9.42273e-05
5.99614e-09
9.42272e-05
6.70517e-09
9.42271e-05
7.25881e-09
9.4227e-05
7.6233e-09
9.42268e-05
7.76727e-09
9.42266e-05
7.66135e-09
9.42264e-05
7.27899e-09
9.42261e-05
6.59935e-09
9.42257e-05
5.61229e-09
9.42253e-05
4.32472e-09
9.42248e-05
2.76715e-09
9.42242e-05
9.98843e-10
9.42235e-05
-8.9051e-10
9.42227e-05
-2.78405e-09
9.42218e-05
-4.54789e-09
9.42208e-05
-6.04655e-09
9.42196e-05
-7.16124e-09
9.42183e-05
-7.80731e-09
9.4217e-05
-7.94723e-09
9.42155e-05
-7.59698e-09
9.4214e-05
-6.82454e-09
9.42124e-05
-5.74033e-09
9.42109e-05
-4.48106e-09
9.42094e-05
-3.18978e-09
9.4208e-05
-1.99594e-09
9.42068e-05
-9.9853e-10
9.42057e-05
-2.54818e-10
9.42049e-05
2.24167e-10
9.42044e-05
4.70981e-10
9.42041e-05
5.5271e-10
9.42042e-05
5.57519e-10
9.42046e-05
5.79357e-10
9.42053e-05
7.02896e-10
9.42062e-05
9.90212e-10
9.42075e-05
1.47042e-09
9.42089e-05
2.1335e-09
9.42105e-05
2.92953e-09
9.42123e-05
3.77358e-09
9.42142e-05
4.55594e-09
9.42161e-05
5.15616e-09
9.4218e-05
5.45903e-09
9.42199e-05
5.37124e-09
9.42217e-05
4.83657e-09
9.42234e-05
3.84732e-09
9.4225e-05
2.44881e-09
9.42264e-05
7.35554e-10
9.42277e-05
-1.16025e-09
9.42288e-05
-3.08496e-09
9.42298e-05
-4.88209e-09
9.42307e-05
-6.41049e-09
9.42314e-05
-7.55933e-09
9.4232e-05
-8.25741e-09
9.42325e-05
-8.47609e-09
9.42329e-05
-8.2264e-09
9.42332e-05
-7.55204e-09
9.42335e-05
-6.51981e-09
9.42338e-05
-5.20995e-09
9.4234e-05
-3.70803e-09
9.42343e-05
-2.09917e-09
9.42344e-05
-4.64432e-10
9.42346e-05
1.12096e-09
9.42348e-05
2.58897e-09
9.42349e-05
3.88118e-09
9.4235e-05
4.95141e-09
9.4235e-05
5.76628e-09
9.42351e-05
6.30445e-09
9.42351e-05
6.55795e-09
9.4235e-05
6.53486e-09
9.42349e-05
6.25789e-09
9.42348e-05
5.75857e-09
9.42346e-05
5.07297e-09
9.42344e-05
4.24196e-09
9.42343e-05
3.31194e-09
9.42341e-05
2.33178e-09
9.42338e-05
1.34744e-09
9.42337e-05
3.98769e-10
9.42335e-05
-4.7996e-10
9.42333e-05
-1.25865e-09
9.42332e-05
-1.91334e-09
9.42331e-05
-2.42961e-09
9.4233e-05
-2.80226e-09
9.42329e-05
-3.03091e-09
9.42329e-05
-3.11935e-09
9.42328e-05
-3.07864e-09
9.42328e-05
-2.92405e-09
9.42328e-05
-2.6695e-09
9.42327e-05
-2.32785e-09
9.42325e-05
-1.91357e-09
9.42322e-05
-1.44259e-09
9.42318e-05
-9.24131e-10
9.4231e-05
-3.61639e-10
9.42299e-05
2.34965e-10
9.42282e-05
8.58125e-10
9.42259e-05