/*--------------------------------*- C++ -*----------------------------------*\
| =========                 |                                                 |
| \\      /  F ield         | OpenFOAM: The Open Source CFD Toolbox           |
|  \\    /   O peration     | Version:  2406                                  |
|   \\  /    A nd           | Website:  www.openfoam.com                      |
|    \\/     M anipulation  |                                                 |
\*---------------------------------------------------------------------------*/
FoamFile
{
    version     2.0;
    format      ascii;
    arch        "LSB;label=32;scalar=64";
    class       volVectorField;
    location    "0.1";
    object      U;
}
// * * * * * * * * * * * * * * * * * * * * * * * * * * * * * * * * * * * * * //

dimensions      [0 1 -1 0 0 0 0];

internalField   nonuniform List<vector> 
2250
(
(0.213198 -3.92735e-05 0)
(0.213277 -2.82462e-05 0)
(0.213344 -2.00109e-05 0)
(0.213396 -1.6537e-05 0)
(0.213444 -1.56539e-05 0)
(0.213492 -1.56605e-05 0)
(0.213541 -1.56222e-05 0)
(0.213588 -1.54309e-05 0)
(0.213634 -1.46277e-05 0)
(0.213677 -1.34433e-05 0)
(0.213716 -1.19925e-05 0)
(0.21375 -1.02809e-05 0)
(0.21378 -8.51437e-06 0)
(0.213803 -6.8906e-06 0)
(0.213823 -5.30197e-06 0)
(0.213837 -3.91899e-06 0)
(0.213848 -2.81107e-06 0)
(0.213856 -1.89412e-06 0)
(0.213861 -1.19344e-06 0)
(0.213864 -7.10961e-07 0)
(0.213866 -3.80334e-07 0)
(0.213868 -1.64303e-07 0)
(0.213868 -5.15609e-08 0)
(0.213869 -2.05593e-08 0)
(0.213869 -4.51495e-08 0)
(0.21387 -1.21707e-07 0)
(0.213871 -2.47347e-07 0)
(0.213872 -3.79124e-07 0)
(0.213873 -4.69663e-07 0)
(0.213875 -5.31926e-07 0)
(0.213877 -6.13411e-07 0)
(0.21388 -7.16252e-07 0)
(0.213882 -7.9606e-07 0)
(0.213885 -8.33428e-07 0)
(0.213888 -8.55836e-07 0)
(0.213891 -8.84898e-07 0)
(0.213893 -9.02413e-07 0)
(0.213896 -8.80325e-07 0)
(0.213899 -8.19352e-07 0)
(0.213902 -7.44653e-07 0)
(0.213904 -6.73693e-07 0)
(0.213906 -5.97685e-07 0)
(0.213907 -4.91982e-07 0)
(0.213908 -3.40014e-07 0)
(0.213909 -1.46237e-07 0)
(0.213909 7.45262e-08 0)
(0.213908 3.05759e-07 0)
(0.213906 5.42695e-07 0)
(0.213904 7.83718e-07 0)
(0.213901 1.02164e-06 0)
(0.213897 1.24312e-06 0)
(0.213892 1.43369e-06 0)
(0.213887 1.58216e-06 0)
(0.213882 1.6817e-06 0)
(0.213877 1.72725e-06 0)
(0.213871 1.71101e-06 0)
(0.213866 1.61972e-06 0)
(0.213861 1.43723e-06 0)
(0.213857 1.15147e-06 0)
(0.213854 7.60088e-07 0)
(0.213853 2.72353e-07 0)
(0.213854 -2.98789e-07 0)
(0.213856 -9.3058e-07 0)
(0.21386 -1.59681e-06 0)
(0.213867 -2.26147e-06 0)
(0.213875 -2.87616e-06 0)
(0.213885 -3.3858e-06 0)
(0.213896 -3.74217e-06 0)
(0.213908 -3.91808e-06 0)
(0.21392 -3.91301e-06 0)
(0.213932 -3.74764e-06 0)
(0.213943 -3.45353e-06 0)
(0.213953 -3.06544e-06 0)
(0.213962 -2.61863e-06 0)
(0.21397 -2.14737e-06 0)
(0.213976 -1.68158e-06 0)
(0.21398 -1.24304e-06 0)
(0.213984 -8.43596e-07 0)
(0.213986 -4.85013e-07 0)
(0.213987 -1.58546e-07 0)
(0.213986 1.58462e-07 0)
(0.213985 4.86972e-07 0)
(0.213983 8.47513e-07 0)
(0.213979 1.25132e-06 0)
(0.213974 1.6992e-06 0)
(0.213968 2.18307e-06 0)
(0.21396 2.68404e-06 0)
(0.21395 3.16844e-06 0)
(0.21394 3.58898e-06 0)
(0.213928 3.89499e-06 0)
(0.213916 4.04613e-06 0)
(0.213903 4.01942e-06 0)
(0.213891 3.80683e-06 0)
(0.21388 3.41082e-06 0)
(0.213871 2.84663e-06 0)
(0.213863 2.15025e-06 0)
(0.213858 1.38039e-06 0)
(0.213855 6.06005e-07 0)
(0.213855 -1.12446e-07 0)
(0.213856 -7.33386e-07 0)
(0.213859 -1.22773e-06 0)
(0.213864 -1.57257e-06 0)
(0.213869 -1.75387e-06 0)
(0.213874 -1.77381e-06 0)
(0.21388 -1.65045e-06 0)
(0.213884 -1.40977e-06 0)
(0.213888 -1.07989e-06 0)
(0.213891 -6.90996e-07 0)
(0.213892 -2.74592e-07 0)
(0.213892 1.43747e-07 0)
(0.213891 5.41957e-07 0)
(0.213889 9.06563e-07 0)
(0.213885 1.22588e-06 0)
(0.213881 1.4827e-06 0)
(0.213876 1.65437e-06 0)
(0.213871 1.7263e-06 0)
(0.213866 1.70576e-06 0)
(0.21386 1.61386e-06 0)
(0.213856 1.46333e-06 0)
(0.213851 1.25715e-06 0)
(0.213848 1.00981e-06 0)
(0.213845 7.48649e-07 0)
(0.213843 4.85429e-07 0)
(0.213842 2.09233e-07 0)
(0.213841 -7.83857e-08 0)
(0.213842 -3.40553e-07 0)
(0.213843 -5.36645e-07 0)
(0.213845 -6.67908e-07 0)
(0.213847 -7.69506e-07 0)
(0.213849 -8.61085e-07 0)
(0.213852 -9.20921e-07 0)
(0.213855 -9.14381e-07 0)
(0.213857 -8.40168e-07 0)
(0.21386 -7.34834e-07 0)
(0.213862 -6.23291e-07 0)
(0.213864 -4.90935e-07 0)
(0.213866 -3.39135e-07 0)
(0.213868 -2.26988e-07 0)
(0.213869 -1.984e-07 0)
(0.21387 -2.22536e-07 0)
(0.213872 -2.83515e-07 0)
(0.213874 -4.63512e-07 0)
(0.213877 -8.57607e-07 0)
(0.213882 -1.51134e-06 0)
(0.21389 -2.50975e-06 0)
(0.213901 -4.01251e-06 0)
(0.213916 -6.23727e-06 0)
(0.213938 -9.5437e-06 0)
(0.213973 -1.49819e-05 0)
(0.21402 -2.29287e-05 0)
(0.561392 -0.000138873 0)
(0.561501 -0.000117773 0)
(0.561623 -0.000102795 0)
(0.561737 -9.66218e-05 0)
(0.561848 -9.5208e-05 0)
(0.561963 -9.51786e-05 0)
(0.562077 -9.42891e-05 0)
(0.56219 -9.17378e-05 0)
(0.562298 -8.67674e-05 0)
(0.562399 -7.97552e-05 0)
(0.56249 -7.11367e-05 0)
(0.562571 -6.14844e-05 0)
(0.56264 -5.14369e-05 0)
(0.562697 -4.18233e-05 0)
(0.562743 -3.28453e-05 0)
(0.562779 -2.49062e-05 0)
(0.562806 -1.8265e-05 0)
(0.562826 -1.28558e-05 0)
(0.56284 -8.65969e-06 0)
(0.562849 -5.58207e-06 0)
(0.562855 -3.43357e-06 0)
(0.562859 -2.07236e-06 0)
(0.562862 -1.35086e-06 0)
(0.562864 -1.10502e-06 0)
(0.562866 -1.21852e-06 0)
(0.562869 -1.61249e-06 0)
(0.562872 -2.18013e-06 0)
(0.562875 -2.77973e-06 0)
(0.562879 -3.31944e-06 0)
(0.562884 -3.81573e-06 0)
(0.56289 -4.3201e-06 0)
(0.562896 -4.80887e-06 0)
(0.562903 -5.20034e-06 0)
(0.56291 -5.46058e-06 0)
(0.562917 -5.62156e-06 0)
(0.562925 -5.69791e-06 0)
(0.562932 -5.65043e-06 0)
(0.562939 -5.44403e-06 0)
(0.562946 -5.09591e-06 0)
(0.562953 -4.64566e-06 0)
(0.562958 -4.09872e-06 0)
(0.562963 -3.41484e-06 0)
(0.562967 -2.54579e-06 0)
(0.562969 -1.47688e-06 0)
(0.56297 -2.35199e-07 0)
(0.562969 1.13564e-06 0)
(0.562966 2.59121e-06 0)
(0.562961 4.09251e-06 0)
(0.562955 5.58986e-06 0)
(0.562946 7.0169e-06 0)
(0.562936 8.3006e-06 0)
(0.562923 9.37296e-06 0)
(0.56291 1.01742e-05 0)
(0.562896 1.06504e-05 0)
(0.562882 1.075e-05 0)
(0.562868 1.04196e-05 0)
(0.562854 9.60188e-06 0)
(0.562843 8.23964e-06 0)
(0.562833 6.29013e-06 0)
(0.562827 3.74351e-06 0)
(0.562824 6.35703e-07 0)
(0.562825 -2.93907e-06 0)
(0.562832 -6.82606e-06 0)
(0.562843 -1.08184e-05 0)
(0.56286 -1.46685e-05 0)
(0.562881 -1.81081e-05 0)
(0.562905 -2.08783e-05 0)
(0.562933 -2.27701e-05 0)
(0.562963 -2.36626e-05 0)
(0.562992 -2.35463e-05 0)
(0.563021 -2.25158e-05 0)
(0.563049 -2.07399e-05 0)
(0.563073 -1.84225e-05 0)
(0.563095 -1.57721e-05 0)
(0.563113 -1.29809e-05 0)
(0.563127 -1.02072e-05 0)
(0.563139 -7.55979e-06 0)
(0.563147 -5.08953e-06 0)
(0.563151 -2.79131e-06 0)
(0.563154 -6.12602e-07 0)
(0.563153 1.53767e-06 0)
(0.563149 3.75585e-06 0)
(0.563143 6.12779e-06 0)
(0.563133 8.69825e-06 0)
(0.563121 1.14537e-05 0)
(0.563104 1.43201e-05 0)
(0.563084 1.71657e-05 0)
(0.563061 1.98046e-05 0)
(0.563035 2.20074e-05 0)
(0.563006 2.35288e-05 0)
(0.562976 2.41524e-05 0)
(0.562946 2.37339e-05 0)
(0.562918 2.22258e-05 0)
(0.562892 1.96786e-05 0)
(0.56287 1.62336e-05 0)
(0.562852 1.21174e-05 0)
(0.562841 7.63363e-06 0)
(0.562834 3.13293e-06 0)
(0.562834 -1.04373e-06 0)
(0.562838 -4.61989e-06 0)
(0.562846 -7.40734e-06 0)
(0.562857 -9.2983e-06 0)
(0.56287 -1.02533e-05 0)
(0.562884 -1.02996e-05 0)
(0.562897 -9.5285e-06 0)
(0.562908 -8.07841e-06 0)
(0.562918 -6.11229e-06 0)
(0.562924 -3.80158e-06 0)
(0.562928 -1.31502e-06 0)
(0.562928 1.19399e-06 0)
(0.562925 3.58699e-06 0)
(0.562919 5.7467e-06 0)
(0.56291 7.5752e-06 0)
(0.5629 8.99254e-06 0)
(0.562887 9.93597e-06 0)
(0.562874 1.03705e-05 0)
(0.562861 1.03089e-05 0)
(0.562848 9.80872e-06 0)
(0.562835 8.93289e-06 0)
(0.562824 7.72986e-06 0)
(0.562815 6.26836e-06 0)
(0.562807 4.66246e-06 0)
(0.562802 3.0221e-06 0)
(0.562799 1.39733e-06 0)
(0.562797 -1.87213e-07 0)
(0.562798 -1.65809e-06 0)
(0.562801 -2.90321e-06 0)
(0.562805 -3.86095e-06 0)
(0.56281 -4.55836e-06 0)
(0.562816 -5.04688e-06 0)
(0.562823 -5.3291e-06 0)
(0.562829 -5.37279e-06 0)
(0.562836 -5.18304e-06 0)
(0.562843 -4.8299e-06 0)
(0.562849 -4.38602e-06 0)
(0.562855 -3.87058e-06 0)
(0.56286 -3.32581e-06 0)
(0.562865 -2.9145e-06 0)
(0.562869 -2.83723e-06 0)
(0.562874 -3.2074e-06 0)
(0.56288 -4.13732e-06 0)
(0.562887 -5.88937e-06 0)
(0.562897 -8.80101e-06 0)
(0.562912 -1.31331e-05 0)
(0.562933 -1.91327e-05 0)
(0.562962 -2.71187e-05 0)
(0.563 -3.7299e-05 0)
(0.563049 -4.96588e-05 0)
(0.563115 -6.48267e-05 0)
(0.563191 -8.28166e-05 0)
(0.839877 -0.000247011 0)
(0.839965 -0.000230916 0)
(0.840077 -0.000225357 0)
(0.840192 -0.000225833 0)
(0.840311 -0.000228176 0)
(0.840436 -0.000229721 0)
(0.840562 -0.000228026 0)
(0.840687 -0.000221654 0)
(0.840807 -0.000209828 0)
(0.84092 -0.000193221 0)
(0.841022 -0.000172793 0)
(0.841113 -0.000150043 0)
(0.841192 -0.000126442 0)
(0.841257 -0.000103411 0)
(0.841311 -8.20253e-05 0)
(0.841353 -6.30151e-05 0)
(0.841385 -4.68528e-05 0)
(0.84141 -3.36456e-05 0)
(0.841427 -2.32871e-05 0)
(0.84144 -1.55499e-05 0)
(0.841448 -1.01271e-05 0)
(0.841454 -6.67599e-06 0)
(0.841459 -4.78953e-06 0)
(0.841462 -4.09203e-06 0)
(0.841466 -4.31466e-06 0)
(0.841469 -5.18199e-06 0)
(0.841474 -6.37999e-06 0)
(0.841479 -7.70071e-06 0)
(0.841485 -9.08615e-06 0)
(0.841492 -1.04935e-05 0)
(0.8415 -1.18131e-05 0)
(0.841508 -1.29367e-05 0)
(0.841518 -1.38273e-05 0)
(0.841527 -1.44881e-05 0)
(0.841537 -1.4896e-05 0)
(0.841547 -1.49946e-05 0)
(0.841557 -1.47465e-05 0)
(0.841567 -1.41667e-05 0)
(0.841576 -1.32893e-05 0)
(0.841585 -1.2107e-05 0)
(0.841592 -1.05561e-05 0)
(0.841598 -8.56323e-06 0)
(0.841603 -6.10135e-06 0)
(0.841606 -3.20207e-06 0)
(0.841607 7.36749e-08 0)
(0.841605 3.66204e-06 0)
(0.841601 7.4933e-06 0)
(0.841593 1.14637e-05 0)
(0.841584 1.54182e-05 0)
(0.841571 1.91639e-05 0)
(0.841556 2.2504e-05 0)
(0.841539 2.52638e-05 0)
(0.84152 2.72941e-05 0)
(0.841501 2.8456e-05 0)
(0.84148 2.86082e-05 0)
(0.84146 2.76052e-05 0)
(0.841441 2.53074e-05 0)
(0.841425 2.15974e-05 0)
(0.841411 1.63994e-05 0)
(0.841401 9.70519e-06 0)
(0.841396 1.60918e-06 0)
(0.841397 -7.64629e-06 0)
(0.841405 -1.76524e-05 0)
(0.841419 -2.78459e-05 0)
(0.84144 -3.75666e-05 0)
(0.841466 -4.61411e-05 0)
(0.841498 -5.2968e-05 0)
(0.841533 -5.75894e-05 0)
(0.84157 -5.9746e-05 0)
(0.841608 -5.94109e-05 0)
(0.841645 -5.67913e-05 0)
(0.841679 -5.22862e-05 0)
(0.84171 -4.64093e-05 0)
(0.841737 -3.97019e-05 0)
(0.841759 -3.26588e-05 0)
(0.841777 -2.56752e-05 0)
(0.841791 -1.90126e-05 0)
(0.8418 -1.27828e-05 0)
(0.841806 -6.95648e-06 0)
(0.841808 -1.39362e-06 0)
(0.841807 4.11134e-06 0)
(0.841803 9.78143e-06 0)
(0.841795 1.58064e-05 0)
(0.841784 2.22887e-05 0)
(0.841768 2.91951e-05 0)
(0.841748 3.63329e-05 0)
(0.841724 4.3356e-05 0)
(0.841696 4.97956e-05 0)
(0.841663 5.51048e-05 0)
(0.841628 5.87159e-05 0)
(0.841592 6.0115e-05 0)
(0.841555 5.89317e-05 0)
(0.84152 5.50202e-05 0)
(0.841489 4.85046e-05 0)
(0.841462 3.9771e-05 0)
(0.841441 2.94181e-05 0)
(0.841428 1.81913e-05 0)
(0.841421 6.91207e-06 0)
(0.841422 -3.60556e-06 0)
(0.841429 -1.26493e-05 0)
(0.841442 -1.96931e-05 0)
(0.841458 -2.44341e-05 0)
(0.841476 -2.67837e-05 0)
(0.841496 -2.68351e-05 0)
(0.841514 -2.48264e-05 0)
(0.841531 -2.10983e-05 0)
(0.841544 -1.60488e-05 0)
(0.841554 -1.00973e-05 0)
(0.841559 -3.66118e-06 0)
(0.84156 2.86044e-06 0)
(0.841556 9.09858e-06 0)
(0.841549 1.47279e-05 0)
(0.841537 1.94804e-05 0)
(0.841523 2.31609e-05 0)
(0.841507 2.56505e-05 0)
(0.841489 2.68945e-05 0)
(0.84147 2.69021e-05 0)
(0.841452 2.57589e-05 0)
(0.841435 2.36142e-05 0)
(0.841419 2.06343e-05 0)
(0.841405 1.69884e-05 0)
(0.841394 1.28867e-05 0)
(0.841386 8.59035e-06 0)
(0.841381 4.34037e-06 0)
(0.841378 2.96242e-07 0)
(0.841378 -3.43326e-06 0)
(0.841381 -6.72412e-06 0)
(0.841385 -9.43783e-06 0)
(0.841392 -1.14843e-05 0)
(0.8414 -1.28607e-05 0)
(0.841409 -1.36251e-05 0)
(0.841418 -1.38444e-05 0)
(0.841427 -1.35703e-05 0)
(0.841437 -1.2876e-05 0)
(0.841446 -1.19044e-05 0)
(0.841454 -1.08346e-05 0)
(0.841462 -9.82704e-06 0)
(0.841469 -9.09056e-06 0)
(0.841475 -8.98609e-06 0)
(0.841482 -9.98622e-06 0)
(0.84149 -1.25666e-05 0)
(0.8415 -1.72255e-05 0)
(0.841513 -2.45527e-05 0)
(0.841531 -3.5112e-05 0)
(0.841555 -4.92928e-05 0)
(0.841588 -6.72206e-05 0)
(0.84163 -8.84785e-05 0)
(0.841681 -0.000111483 0)
(0.841744 -0.000133294 0)
(0.841814 -0.000152491 0)
(1.05645 -0.000316971 0)
(1.05648 -0.00030913 0)
(1.05654 -0.000318444 0)
(1.0566 -0.00033097 0)
(1.05667 -0.000340841 0)
(1.05675 -0.000346453 0)
(1.05683 -0.000345604 0)
(1.05691 -0.000336833 0)
(1.05699 -0.000319861 0)
(1.05706 -0.000295229 0)
(1.05713 -0.000264942 0)
(1.05719 -0.000230996 0)
(1.05725 -0.000195711 0)
(1.05729 -0.000161002 0)
(1.05733 -0.000128602 0)
(1.05736 -9.96964e-05 0)
(1.05738 -7.49125e-05 0)
(1.0574 -5.45077e-05 0)
(1.05742 -3.84442e-05 0)
(1.05743 -2.64378e-05 0)
(1.05743 -1.79778e-05 0)
(1.05744 -1.24912e-05 0)
(1.05744 -9.44255e-06 0)
(1.05745 -8.32179e-06 0)
(1.05745 -8.63839e-06 0)
(1.05746 -9.92193e-06 0)
(1.05746 -1.17722e-05 0)
(1.05747 -1.3937e-05 0)
(1.05747 -1.62729e-05 0)
(1.05748 -1.86183e-05 0)
(1.05749 -2.07737e-05 0)
(1.0575 -2.25999e-05 0)
(1.05751 -2.40541e-05 0)
(1.05752 -2.5116e-05 0)
(1.05753 -2.57314e-05 0)
(1.05754 -2.58378e-05 0)
(1.05755 -2.54045e-05 0)
(1.05756 -2.44261e-05 0)
(1.05757 -2.28852e-05 0)
(1.05758 -2.07291e-05 0)
(1.05758 -1.78837e-05 0)
(1.05759 -1.42915e-05 0)
(1.0576 -9.94078e-06 0)
(1.0576 -4.86483e-06 0)
(1.0576 8.72648e-07 0)
(1.0576 7.17937e-06 0)
(1.05759 1.39199e-05 0)
(1.05758 2.08943e-05 0)
(1.05757 2.78341e-05 0)
(1.05756 3.44188e-05 0)
(1.05754 4.03098e-05 0)
(1.05752 4.51868e-05 0)
(1.0575 4.87692e-05 0)
(1.05748 5.08112e-05 0)
(1.05745 5.10812e-05 0)
(1.05743 4.93453e-05 0)
(1.05741 4.5372e-05 0)
(1.05739 3.89609e-05 0)
(1.05737 2.9988e-05 0)
(1.05736 1.84598e-05 0)
(1.05735 4.57389e-06 0)
(1.05735 -1.12311e-05 0)
(1.05736 -2.82474e-05 0)
(1.05737 -4.55234e-05 0)
(1.05739 -6.19476e-05 0)
(1.05741 -7.63828e-05 0)
(1.05744 -8.78168e-05 0)
(1.05748 -9.54928e-05 0)
(1.05751 -9.90008e-05 0)
(1.05755 -9.83185e-05 0)
(1.05758 -9.38012e-05 0)
(1.05761 -8.61189e-05 0)
(1.05764 -7.61442e-05 0)
(1.05766 -6.48143e-05 0)
(1.05768 -5.29961e-05 0)
(1.0577 -4.13807e-05 0)
(1.05771 -3.04171e-05 0)
(1.05771 -2.02876e-05 0)
(1.05772 -1.09235e-05 0)
(1.05772 -2.06088e-06 0)
(1.05772 6.67459e-06 0)
(1.05772 1.56791e-05 0)
(1.05771 2.52811e-05 0)
(1.0577 3.56623e-05 0)
(1.05769 4.67889e-05 0)
(1.05767 5.83634e-05 0)
(1.05765 6.98198e-05 0)
(1.05763 8.03699e-05 0)
(1.0576 8.90909e-05 0)
(1.05757 9.50369e-05 0)
(1.05754 9.73612e-05 0)
(1.05751 9.5443e-05 0)
(1.05748 8.90069e-05 0)
(1.05745 7.82102e-05 0)
(1.05743 6.36625e-05 0)
(1.05741 4.63633e-05 0)
(1.0574 2.75756e-05 0)
(1.0574 8.67681e-06 0)
(1.0574 -8.98393e-06 0)
(1.05741 -2.42192e-05 0)
(1.05743 -3.61187e-05 0)
(1.05745 -4.41256e-05 0)
(1.05747 -4.80514e-05 0)
(1.05749 -4.80356e-05 0)
(1.05751 -4.44775e-05 0)
(1.05753 -3.79575e-05 0)
(1.05755 -2.9158e-05 0)
(1.05756 -1.87963e-05 0)
(1.05757 -7.58021e-06 0)
(1.05757 3.81532e-06 0)
(1.05757 1.47642e-05 0)
(1.05756 2.47056e-05 0)
(1.05755 3.31676e-05 0)
(1.05753 3.97988e-05 0)
(1.05752 4.43881e-05 0)
(1.0575 4.68485e-05 0)
(1.05748 4.71872e-05 0)
(1.05746 4.55093e-05 0)
(1.05744 4.20389e-05 0)
(1.05742 3.70877e-05 0)
(1.0574 3.09851e-05 0)
(1.05739 2.40587e-05 0)
(1.05738 1.66746e-05 0)
(1.05737 9.23623e-06 0)
(1.05737 2.10508e-06 0)
(1.05737 -4.4611e-06 0)
(1.05737 -1.02853e-05 0)
(1.05737 -1.52105e-05 0)
(1.05738 -1.90879e-05 0)
(1.05739 -2.18274e-05 0)
(1.0574 -2.34503e-05 0)
(1.05741 -2.40748e-05 0)
(1.05742 -2.38356e-05 0)
(1.05743 -2.28513e-05 0)
(1.05744 -2.13178e-05 0)
(1.05745 -1.9568e-05 0)
(1.05745 -1.79643e-05 0)
(1.05746 -1.68328e-05 0)
(1.05747 -1.66106e-05 0)
(1.05748 -1.79766e-05 0)
(1.05748 -2.17492e-05 0)
(1.05749 -2.87234e-05 0)
(1.0575 -3.96655e-05 0)
(1.05751 -5.53154e-05 0)
(1.05753 -7.61125e-05 0)
(1.05755 -0.000101807 0)
(1.05758 -0.000131201 0)
(1.05761 -0.000161099 0)
(1.05764 -0.000185621 0)
(1.05768 -0.000202415 0)
(1.21777 -0.000322949 0)
(1.21774 -0.000320916 0)
(1.21771 -0.000340726 0)
(1.2177 -0.0003628 0)
(1.21769 -0.000379261 0)
(1.21768 -0.000388919 0)
(1.21767 -0.000390238 0)
(1.21767 -0.0003817 0)
(1.21767 -0.000363779 0)
(1.21766 -0.000336911 0)
(1.21766 -0.000303541 0)
(1.21766 -0.000265852 0)
(1.21767 -0.000226265 0)
(1.21767 -0.000187169 0)
(1.21767 -0.000150583 0)
(1.21767 -0.000117737 0)
(1.21768 -8.93423e-05 0)
(1.21768 -6.58922e-05 0)
(1.21769 -4.74309e-05 0)
(1.21769 -3.35571e-05 0)
(1.21769 -2.36926e-05 0)
(1.2177 -1.72905e-05 0)
(1.2177 -1.37991e-05 0)
(1.2177 -1.25949e-05 0)
(1.21771 -1.30788e-05 0)
(1.21771 -1.4763e-05 0)
(1.21772 -1.72414e-05 0)
(1.21772 -2.01633e-05 0)
(1.21773 -2.32506e-05 0)
(1.21773 -2.62836e-05 0)
(1.21774 -2.90746e-05 0)
(1.21775 -3.14805e-05 0)
(1.21775 -3.34144e-05 0)
(1.21776 -3.48141e-05 0)
(1.21777 -3.5612e-05 0)
(1.21778 -3.5742e-05 0)
(1.21779 -3.51513e-05 0)
(1.2178 -3.37864e-05 0)
(1.2178 -3.15781e-05 0)
(1.21781 -2.84483e-05 0)
(1.21782 -2.43334e-05 0)
(1.21782 -1.9199e-05 0)
(1.21783 -1.30386e-05 0)
(1.21783 -5.86915e-06 0)
(1.21783 2.25845e-06 0)
(1.21782 1.12315e-05 0)
(1.21782 2.08468e-05 0)
(1.21781 3.08006e-05 0)
(1.2178 4.0704e-05 0)
(1.21779 5.01128e-05 0)
(1.21777 5.8563e-05 0)
(1.21775 6.56055e-05 0)
(1.21773 7.0832e-05 0)
(1.21771 7.38811e-05 0)
(1.21769 7.44238e-05 0)
(1.21767 7.21451e-05 0)
(1.21764 6.67403e-05 0)
(1.21762 5.79426e-05 0)
(1.21761 4.55844e-05 0)
(1.21759 2.96854e-05 0)
(1.21758 1.05422e-05 0)
(1.21758 -1.1206e-05 0)
(1.21758 -3.45611e-05 0)
(1.21759 -5.82108e-05 0)
(1.2176 -8.064e-05 0)
(1.21761 -0.000100297 0)
(1.21763 -0.00011579 0)
(1.21766 -0.000126076 0)
(1.21768 -0.000130599 0)
(1.2177 -0.000129356 0)
(1.21773 -0.000122873 0)
(1.21775 -0.000112108 0)
(1.21777 -9.83014e-05 0)
(1.21778 -8.27886e-05 0)
(1.21779 -6.68119e-05 0)
(1.2178 -5.13616e-05 0)
(1.2178 -3.70745e-05 0)
(1.2178 -2.41964e-05 0)
(1.2178 -1.26051e-05 0)
(1.2178 -1.88677e-06 0)
(1.2178 8.54589e-06 0)
(1.2178 1.93159e-05 0)
(1.2178 3.09444e-05 0)
(1.21779 4.37362e-05 0)
(1.21779 5.76914e-05 0)
(1.21778 7.24498e-05 0)
(1.21777 8.72794e-05 0)
(1.21776 0.000101124 0)
(1.21775 0.000112717 0)
(1.21773 0.000120741 0)
(1.21771 0.000124012 0)
(1.21769 0.000121657 0)
(1.21768 0.000113263 0)
(1.21766 9.89841e-05 0)
(1.21765 7.95747e-05 0)
(1.21764 5.63408e-05 0)
(1.21764 3.09877e-05 0)
(1.21764 5.40796e-06 0)
(1.21765 -1.85392e-05 0)
(1.21767 -3.92192e-05 0)
(1.21769 -5.5368e-05 0)
(1.21771 -6.61887e-05 0)
(1.21773 -7.13817e-05 0)
(1.21775 -7.11045e-05 0)
(1.21778 -6.58838e-05 0)
(1.2178 -5.65069e-05 0)
(1.21781 -4.39151e-05 0)
(1.21783 -2.91097e-05 0)
(1.21783 -1.30837e-05 0)
(1.21784 3.21922e-06 0)
(1.21784 1.8933e-05 0)
(1.21783 3.32893e-05 0)
(1.21782 4.56374e-05 0)
(1.21781 5.54707e-05 0)
(1.21779 6.24579e-05 0)
(1.21778 6.64501e-05 0)
(1.21776 6.74493e-05 0)
(1.21774 6.55812e-05 0)
(1.21772 6.11115e-05 0)
(1.2177 5.44537e-05 0)
(1.21769 4.61042e-05 0)
(1.21767 3.65549e-05 0)
(1.21766 2.62794e-05 0)
(1.21765 1.57719e-05 0)
(1.21765 5.53806e-06 0)
(1.21765 -3.97969e-06 0)
(1.21765 -1.24607e-05 0)
(1.21765 -1.96909e-05 0)
(1.21765 -2.55111e-05 0)
(1.21766 -2.98063e-05 0)
(1.21767 -3.25513e-05 0)
(1.21768 -3.38446e-05 0)
(1.21768 -3.38647e-05 0)
(1.21769 -3.28003e-05 0)
(1.2177 -3.08854e-05 0)
(1.21771 -2.84919e-05 0)
(1.21772 -2.60945e-05 0)
(1.21773 -2.41835e-05 0)
(1.21773 -2.33133e-05 0)
(1.21774 -2.42067e-05 0)
(1.21774 -2.7766e-05 0)
(1.21774 -3.49399e-05 0)
(1.21774 -4.65972e-05 0)
(1.21774 -6.35227e-05 0)
(1.21774 -8.60407e-05 0)
(1.21774 -0.000113687 0)
(1.21774 -0.000144838 0)
(1.21773 -0.000175467 0)
(1.21772 -0.000198716 0)
(1.21771 -0.000211877 0)
(1.32916 -0.000259127 0)
(1.32907 -0.000259883 0)
(1.32896 -0.000281037 0)
(1.32887 -0.000304224 0)
(1.32877 -0.000321659 0)
(1.32867 -0.000332511 0)
(1.32857 -0.000335617 0)
(1.32847 -0.000329818 0)
(1.32837 -0.000315477 0)
(1.32828 -0.000293426 0)
(1.3282 -0.000265461 0)
(1.32813 -0.000233604 0)
(1.32808 -0.000199933 0)
(1.32803 -0.00016653 0)
(1.32799 -0.000135076 0)
(1.32796 -0.000106623 0)
(1.32794 -8.19651e-05 0)
(1.32792 -6.15925e-05 0)
(1.32791 -4.54655e-05 0)
(1.32791 -3.32723e-05 0)
(1.3279 -2.46708e-05 0)
(1.3279 -1.92501e-05 0)
(1.3279 -1.64857e-05 0)
(1.3279 -1.58186e-05 0)
(1.32791 -1.67547e-05 0)
(1.32791 -1.88791e-05 0)
(1.32791 -2.18047e-05 0)
(1.32792 -2.51607e-05 0)
(1.32792 -2.86406e-05 0)
(1.32793 -3.20247e-05 0)
(1.32793 -3.51477e-05 0)
(1.32794 -3.78752e-05 0)
(1.32794 -4.01011e-05 0)
(1.32794 -4.17335e-05 0)
(1.32795 -4.26744e-05 0)
(1.32795 -4.28227e-05 0)
(1.32796 -4.2088e-05 0)
(1.32796 -4.03871e-05 0)
(1.32797 -3.7634e-05 0)
(1.32797 -3.37448e-05 0)
(1.32798 -2.86542e-05 0)
(1.32798 -2.23224e-05 0)
(1.32798 -1.47296e-05 0)
(1.32798 -5.87744e-06 0)
(1.32798 4.18892e-06 0)
(1.32798 1.53399e-05 0)
(1.32797 2.73239e-05 0)
(1.32797 3.97566e-05 0)
(1.32796 5.21455e-05 0)
(1.32795 6.39383e-05 0)
(1.32793 7.4571e-05 0)
(1.32792 8.35019e-05 0)
(1.3279 9.023e-05 0)
(1.32788 9.42987e-05 0)
(1.32787 9.52901e-05 0)
(1.32785 9.28153e-05 0)
(1.32783 8.65137e-05 0)
(1.32781 7.60798e-05 0)
(1.3278 6.13283e-05 0)
(1.32778 4.22979e-05 0)
(1.32777 1.93631e-05 0)
(1.32777 -6.68318e-06 0)
(1.32776 -3.46137e-05 0)
(1.32776 -6.28307e-05 0)
(1.32776 -8.95044e-05 0)
(1.32777 -0.000112769 0)
(1.32777 -0.000130953 0)
(1.32778 -0.000142801 0)
(1.32779 -0.00014766 0)
(1.3278 -0.00014556 0)
(1.32781 -0.000137194 0)
(1.32781 -0.000123799 0)
(1.32781 -0.000106957 0)
(1.32781 -8.83679e-05 0)
(1.32781 -6.96061e-05 0)
(1.32781 -5.1922e-05 0)
(1.3278 -3.61046e-05 0)
(1.3278 -2.24315e-05 0)
(1.32779 -1.07004e-05 0)
(1.32779 -3.26861e-07 0)
(1.32779 9.51043e-06 0)
(1.32779 1.96941e-05 0)
(1.32779 3.09861e-05 0)
(1.32779 4.38689e-05 0)
(1.3278 5.84307e-05 0)
(1.3278 7.43044e-05 0)
(1.32781 9.06613e-05 0)
(1.32781 0.000106267 0)
(1.32781 0.000119601 0)
(1.32781 0.000129052 0)
(1.32781 0.000133136 0)
(1.32781 0.000130739 0)
(1.32781 0.0001213 0)
(1.32782 0.000104932 0)
(1.32782 8.24616e-05 0)
(1.32782 5.53716e-05 0)
(1.32783 2.56517e-05 0)
(1.32784 -4.44074e-06 0)
(1.32786 -3.26555e-05 0)
(1.32787 -5.70013e-05 0)
(1.32789 -7.59327e-05 0)
(1.32791 -8.84631e-05 0)
(1.32794 -9.42007e-05 0)
(1.32796 -9.33085e-05 0)
(1.32798 -8.64018e-05 0)
(1.32799 -7.44175e-05 0)
(1.32801 -5.84847e-05 0)
(1.32802 -3.98147e-05 0)
(1.32803 -1.96183e-05 0)
(1.32803 9.48795e-07 0)
(1.32803 2.0825e-05 0)
(1.32803 3.90758e-05 0)
(1.32803 5.49161e-05 0)
(1.32802 6.77226e-05 0)
(1.32801 7.70535e-05 0)
(1.32799 8.26791e-05 0)
(1.32798 8.45806e-05 0)
(1.32796 8.29106e-05 0)
(1.32795 7.79657e-05 0)
(1.32794 7.01981e-05 0)
(1.32792 6.01978e-05 0)
(1.32791 4.86047e-05 0)
(1.3279 3.60282e-05 0)
(1.32789 2.30464e-05 0)
(1.32789 1.02367e-05 0)
(1.32788 -1.84583e-06 0)
(1.32788 -1.27373e-05 0)
(1.32788 -2.21081e-05 0)
(1.32788 -2.97503e-05 0)
(1.32789 -3.55442e-05 0)
(1.32789 -3.94465e-05 0)
(1.3279 -4.15131e-05 0)
(1.32791 -4.1918e-05 0)
(1.32791 -4.09149e-05 0)
(1.32792 -3.8784e-05 0)
(1.32792 -3.58559e-05 0)
(1.32793 -3.25685e-05 0)
(1.32793 -2.94764e-05 0)
(1.32794 -2.72086e-05 0)
(1.32794 -2.6437e-05 0)
(1.32794 -2.79459e-05 0)
(1.32793 -3.26167e-05 0)
(1.32792 -4.12808e-05 0)
(1.32791 -5.4607e-05 0)
(1.32789 -7.28122e-05 0)
(1.32786 -9.54489e-05 0)
(1.32783 -0.000121015 0)
(1.32778 -0.000145901 0)
(1.32773 -0.000164115 0)
(1.32766 -0.000173249 0)
(1.39446 -0.000137099 0)
(1.39433 -0.000138306 0)
(1.39417 -0.000151779 0)
(1.39401 -0.000166637 0)
(1.39385 -0.000178206 0)
(1.39368 -0.000185928 0)
(1.3935 -0.000189052 0)
(1.39333 -0.000187137 0)
(1.39316 -0.000180175 0)
(1.39301 -0.000168911 0)
(1.39286 -0.000153964 0)
(1.39274 -0.000136663 0)
(1.39263 -0.000118323 0)
(1.39254 -9.98719e-05 0)
(1.39247 -8.22216e-05 0)
(1.39241 -6.61554e-05 0)
(1.39237 -5.22256e-05 0)
(1.39234 -4.06565e-05 0)
(1.39232 -3.14484e-05 0)
(1.3923 -2.4586e-05 0)
(1.39229 -1.99952e-05 0)
(1.39229 -1.74348e-05 0)
(1.39229 -1.65883e-05 0)
(1.39229 -1.71718e-05 0)
(1.39229 -1.89042e-05 0)
(1.39229 -2.14774e-05 0)
(1.39229 -2.45995e-05 0)
(1.39229 -2.80212e-05 0)
(1.3923 -3.15236e-05 0)
(1.3923 -3.49147e-05 0)
(1.3923 -3.80424e-05 0)
(1.3923 -4.07949e-05 0)
(1.3923 -4.30774e-05 0)
(1.3923 -4.478e-05 0)
(1.3923 -4.57665e-05 0)
(1.3923 -4.58948e-05 0)
(1.3923 -4.50453e-05 0)
(1.3923 -4.3126e-05 0)
(1.39231 -4.00563e-05 0)
(1.39231 -3.57532e-05 0)
(1.39231 -3.01344e-05 0)
(1.39231 -2.31296e-05 0)
(1.39231 -1.46915e-05 0)
(1.3923 -4.81012e-06 0)
(1.3923 6.46401e-06 0)
(1.3923 1.89837e-05 0)
(1.3923 3.24681e-05 0)
(1.39229 4.64893e-05 0)
(1.39229 6.0496e-05 0)
(1.39228 7.38693e-05 0)
(1.39227 8.59819e-05 0)
(1.39226 9.62372e-05 0)
(1.39225 0.000104083 0)
(1.39224 0.000109009 0)
(1.39223 0.000110541 0)
(1.39222 0.000108239 0)
(1.39221 0.000101703 0)
(1.3922 9.06092e-05 0)
(1.39219 7.47788e-05 0)
(1.39218 5.42799e-05 0)
(1.39217 2.9543e-05 0)
(1.39216 1.44949e-06 0)
(1.39215 -2.86438e-05 0)
(1.39214 -5.89704e-05 0)
(1.39213 -8.75094e-05 0)
(1.39213 -0.000112209 0)
(1.39212 -0.000131244 0)
(1.39211 -0.000143262 0)
(1.39211 -0.000147585 0)
(1.3921 -0.000144307 0)
(1.39209 -0.000134277 0)
(1.39208 -0.000118965 0)
(1.39207 -0.000100231 0)
(1.39205 -8.00576e-05 0)
(1.39204 -6.02699e-05 0)
(1.39202 -4.23017e-05 0)
(1.39201 -2.70333e-05 0)
(1.392 -1.47295e-05 0)
(1.39199 -5.07812e-06 0)
(1.39199 2.69101e-06 0)
(1.39198 9.63352e-06 0)
(1.39199 1.68875e-05 0)
(1.39199 2.54626e-05 0)
(1.392 3.60486e-05 0)
(1.39201 4.88721e-05 0)
(1.39203 6.36212e-05 0)
(1.39204 7.94442e-05 0)
(1.39206 9.5019e-05 0)
(1.39208 0.000108689 0)
(1.3921 0.000118661 0)
(1.39211 0.000123253 0)
(1.39213 0.000121155 0)
(1.39215 0.000111655 0)
(1.39217 9.47892e-05 0)
(1.39218 7.1379e-05 0)
(1.3922 4.29672e-05 0)
(1.39221 1.16586e-05 0)
(1.39223 -2.01234e-05 0)
(1.39225 -4.99289e-05 0)
(1.39227 -7.55669e-05 0)
(1.39228 -9.53269e-05 0)
(1.3923 -0.000108109 0)
(1.39232 -0.000113467 0)
(1.39233 -0.000111563 0)
(1.39235 -0.000103062 0)
(1.39236 -8.89857e-05 0)
(1.39237 -7.05662e-05 0)
(1.39238 -4.91262e-05 0)
(1.39238 -2.59888e-05 0)
(1.39239 -2.41996e-06 0)
(1.39239 2.04098e-05 0)
(1.39239 4.14622e-05 0)
(1.39239 5.98654e-05 0)
(1.39239 7.49272e-05 0)
(1.39238 8.6139e-05 0)
(1.39237 9.32e-05 0)
(1.39237 9.60501e-05 0)
(1.39236 9.48554e-05 0)
(1.39235 8.99499e-05 0)
(1.39234 8.17994e-05 0)
(1.39233 7.09999e-05 0)
(1.39232 5.82456e-05 0)
(1.39232 4.42526e-05 0)
(1.39231 2.97011e-05 0)
(1.39231 1.52244e-05 0)
(1.3923 1.41155e-06 0)
(1.3923 -1.1209e-05 0)
(1.3923 -2.22078e-05 0)
(1.3923 -3.12938e-05 0)
(1.3923 -3.83179e-05 0)
(1.3923 -4.32262e-05 0)
(1.3923 -4.60305e-05 0)
(1.39231 -4.68595e-05 0)
(1.39231 -4.59823e-05 0)
(1.39231 -4.37071e-05 0)
(1.39232 -4.03141e-05 0)
(1.39232 -3.61428e-05 0)
(1.39232 -3.16747e-05 0)
(1.39232 -2.74593e-05 0)
(1.39232 -2.40048e-05 0)
(1.39231 -2.18494e-05 0)
(1.3923 -2.16666e-05 0)
(1.39228 -2.40906e-05 0)
(1.39226 -2.95361e-05 0)
(1.39222 -3.82159e-05 0)
(1.39218 -4.9887e-05 0)
(1.39212 -6.36419e-05 0)
(1.39204 -7.73985e-05 0)
(1.39195 -8.75106e-05 0)
(1.39184 -9.24447e-05 0)
(1.41598 1.72644e-05 0)
(1.41583 1.70416e-05 0)
(1.41565 1.6701e-05 0)
(1.41547 1.61415e-05 0)
(1.41529 1.50869e-05 0)
(1.41509 1.36848e-05 0)
(1.41489 1.18556e-05 0)
(1.41469 9.71378e-06 0)
(1.4145 7.37564e-06 0)
(1.41432 4.72391e-06 0)
(1.41415 2.15121e-06 0)
(1.414 -2.98629e-07 0)
(1.41388 -2.59648e-06 0)
(1.41377 -4.51492e-06 0)
(1.41369 -6.01267e-06 0)
(1.41362 -7.19673e-06 0)
(1.41357 -8.12709e-06 0)
(1.41353 -8.83482e-06 0)
(1.4135 -9.45786e-06 0)
(1.41349 -1.02214e-05 0)
(1.41348 -1.12754e-05 0)
(1.41347 -1.26585e-05 0)
(1.41346 -1.44124e-05 0)
(1.41346 -1.65987e-05 0)
(1.41346 -1.91938e-05 0)
(1.41346 -2.20816e-05 0)
(1.41346 -2.51548e-05 0)
(1.41346 -2.83403e-05 0)
(1.41346 -3.15388e-05 0)
(1.41346 -3.46156e-05 0)
(1.41346 -3.74538e-05 0)
(1.41345 -3.99721e-05 0)
(1.41345 -4.20863e-05 0)
(1.41345 -4.36729e-05 0)
(1.41345 -4.45764e-05 0)
(1.41344 -4.46428e-05 0)
(1.41344 -4.37478e-05 0)
(1.41344 -4.17981e-05 0)
(1.41343 -3.87095e-05 0)
(1.41343 -3.43876e-05 0)
(1.41343 -2.87284e-05 0)
(1.41343 -2.16362e-05 0)
(1.41342 -1.30432e-05 0)
(1.41342 -2.92863e-06 0)
(1.41342 8.65599e-06 0)
(1.41342 2.15525e-05 0)
(1.41342 3.54657e-05 0)
(1.41341 4.99559e-05 0)
(1.41341 6.44653e-05 0)
(1.41341 7.83683e-05 0)
(1.41341 9.10278e-05 0)
(1.41341 0.000101834 0)
(1.41341 0.00011022 0)
(1.41341 0.000115666 0)
(1.4134 0.000117686 0)
(1.4134 0.000115825 0)
(1.4134 0.000109675 0)
(1.41339 9.89128e-05 0)
(1.41339 8.33764e-05 0)
(1.41338 6.31604e-05 0)
(1.41338 3.87235e-05 0)
(1.41337 1.09719e-05 0)
(1.41336 -1.87127e-05 0)
(1.41335 -4.85309e-05 0)
(1.41333 -7.64203e-05 0)
(1.41332 -0.000100291 0)
(1.4133 -0.000118301 0)
(1.41329 -0.000129117 0)
(1.41327 -0.000132115 0)
(1.41324 -0.000127484 0)
(1.41322 -0.000116202 0)
(1.4132 -9.98971e-05 0)
(1.41317 -8.06036e-05 0)
(1.41315 -6.0464e-05 0)
(1.41313 -4.14311e-05 0)
(1.41311 -2.50145e-05 0)
(1.41309 -1.21083e-05 0)
(1.41308 -2.92245e-06 0)
(1.41307 2.97703e-06 0)
(1.41306 6.53471e-06 0)
(1.41306 9.00998e-06 0)
(1.41306 1.17522e-05 0)
(1.41307 1.59751e-05 0)
(1.41309 2.25533e-05 0)
(1.4131 3.18651e-05 0)
(1.41312 4.3703e-05 0)
(1.41315 5.72666e-05 0)
(1.41317 7.12384e-05 0)
(1.4132 8.39336e-05 0)
(1.41323 9.35076e-05 0)
(1.41326 9.82033e-05 0)
(1.41328 9.66112e-05 0)
(1.41331 8.79084e-05 0)
(1.41334 7.20259e-05 0)
(1.41336 4.97066e-05 0)
(1.41339 2.24405e-05 0)
(1.41341 -7.70501e-06 0)
(1.41342 -3.83309e-05 0)
(1.41344 -6.69938e-05 0)
(1.41345 -9.14923e-05 0)
(1.41347 -0.000110099 0)
(1.41348 -0.000121701 0)
(1.41348 -0.000125847 0)
(1.41349 -0.000122698 0)
(1.4135 -0.000112925 0)
(1.4135 -9.75579e-05 0)
(1.41351 -7.78419e-05 0)
(1.41351 -5.51082e-05 0)
(1.41351 -3.06837e-05 0)
(1.41352 -5.8338e-06 0)
(1.41352 1.82684e-05 0)
(1.41352 4.05677e-05 0)
(1.41352 6.01652e-05 0)
(1.41352 7.635e-05 0)
(1.41353 8.86016e-05 0)
(1.41353 9.65918e-05 0)
(1.41353 0.000100215 0)
(1.41353 9.96136e-05 0)
(1.41352 9.5136e-05 0)
(1.41352 8.72591e-05 0)
(1.41352 7.65497e-05 0)
(1.41352 6.36663e-05 0)
(1.41352 4.93389e-05 0)