/*--------------------------------*- C++ -*----------------------------------*\
| =========                 |                                                 |
| \\      /  F ield         | OpenFOAM: The Open Source CFD Toolbox           |
|  \\    /   O peration     | Version:  2406                                  |
|   \\  /    A nd           | Website:  www.openfoam.com                      |
|    \\/     M anipulation  |                                                 |
\*---------------------------------------------------------------------------*/
FoamFile
{
    version     2.0;
    format      ascii;
    arch        "LSB;label=32;scalar=64";
    class       surfaceScalarField;
    location    "0.1";
    object      phi;
}
// * * * * * * * * * * * * * * * * * * * * * * * * * * * * * * * * * * * * * //

dimensions      [0 3 -1 0 0 0 0];

oriented        oriented;

internalField   nonuniform List<scalar> 
4335
(
1.1455e-06
-5.1614e-09
1.14951e-06
-4.01069e-09
1.15277e-06
-3.26374e-09
1.15565e-06
-2.87735e-09
1.15824e-06
-2.58904e-09
1.16054e-06
-2.30078e-09
1.16254e-06
-1.99158e-09
1.1642e-06
-1.66843e-09
1.16555e-06
-1.34728e-09
1.1666e-06
-1.04567e-09
1.16738e-06
-7.79067e-10
1.16793e-06
-5.54223e-10
1.1683e-06
-3.72883e-10
1.16854e-06
-2.34217e-10
1.16867e-06
-1.32451e-10
1.16873e-06
-6.18456e-11
1.16875e-06
-1.63471e-11
1.16874e-06
1.04591e-11
1.16872e-06
2.3262e-11
1.16869e-06
2.57423e-11
1.16867e-06
2.14155e-11
1.16866e-06
1.26731e-11
1.16866e-06
5.25767e-13
1.16867e-06
-1.3821e-11
1.1687e-06
-2.92348e-11
1.16874e-06
-4.55884e-11
1.16881e-06
-6.27747e-11
1.16889e-06
-7.98737e-11
1.16898e-06
-9.60861e-11
1.16909e-06
-1.11471e-10
1.16922e-06
-1.26053e-10
1.16936e-06
-1.38887e-10
1.16951e-06
-1.4854e-10
1.16966e-06
-1.53879e-10
1.16981e-06
-1.53762e-10
1.16996e-06
-1.46329e-10
1.17009e-06
-1.29351e-10
1.17019e-06
-1.01469e-10
1.17025e-06
-6.28968e-11
1.17027e-06
-1.50337e-11
1.17023e-06
4.02363e-11
1.17013e-06
1.00428e-10
1.16997e-06
1.62231e-10
1.16974e-06
2.21457e-10
1.16947e-06
2.73844e-10
1.16916e-06
3.15991e-10
1.16881e-06
3.45756e-10
1.16845e-06
3.62012e-10
1.16808e-06
3.64141e-10
1.16773e-06
3.51693e-10
1.16741e-06
3.24279e-10
1.16712e-06
2.81584e-10
1.1669e-06
2.23441e-10
1.16675e-06
1.50073e-10
1.16669e-06
6.26144e-11
1.16672e-06
-3.62638e-11
1.16687e-06
-1.41737e-10
1.16711e-06
-2.46968e-10
1.16746e-06
-3.43632e-10
1.16788e-06
-4.2312e-10
1.16836e-06
-4.77912e-10
1.16886e-06
-5.02855e-10
1.16936e-06
-4.96049e-10
1.16981e-06
-4.59172e-10
1.17021e-06
-3.97194e-10
1.17053e-06
-3.17544e-10
1.17076e-06
-2.28913e-10
1.1709e-06
-1.39936e-10
1.17096e-06
-5.8043e-11
1.17095e-06
1.13818e-11
1.17088e-06
6.52009e-11
1.17078e-06
1.02607e-10
1.17065e-06
1.24577e-10
1.17052e-06
1.3345e-10
1.17039e-06
1.32455e-10
1.17026e-06
1.25355e-10
1.17015e-06
1.16161e-10
1.17004e-06
1.08849e-10
1.16993e-06
1.06978e-10
1.16982e-06
1.13207e-10
1.16969e-06
1.28741e-10
1.16953e-06
1.52826e-10
1.16935e-06
1.82474e-10
1.16914e-06
2.12553e-10
1.1689e-06
2.36338e-10
1.16866e-06
2.46512e-10
1.16842e-06
2.36473e-10
1.16822e-06
2.017e-10
1.16808e-06
1.40883e-10
1.16802e-06
5.65228e-11
1.16807e-06
-4.51921e-11
1.16822e-06
-1.55151e-10
1.16849e-06
-2.62794e-10
1.16884e-06
-3.57713e-10
1.16928e-06
-4.31263e-10
1.16975e-06
-4.77712e-10
1.17025e-06
-4.94723e-10
1.17073e-06
-4.83143e-10
1.17118e-06
-4.46238e-10
1.17157e-06
-3.88691e-10
1.17188e-06
-3.15685e-10
1.17211e-06
-2.3226e-10
1.17226e-06
-1.4301e-10
1.17231e-06
-5.20387e-11
1.17227e-06
3.6963e-11
1.17215e-06
1.20561e-10
1.17195e-06
1.95489e-10
1.17169e-06
2.58583e-10
1.17139e-06
3.06912e-10
1.17105e-06
3.38137e-10
1.1707e-06
3.51039e-10
1.17035e-06
3.45942e-10
1.17003e-06
3.2471e-10
1.16974e-06
2.90297e-10
1.16949e-06
2.46178e-10
1.16929e-06
1.96036e-10
1.16915e-06
1.43646e-10
1.16906e-06
9.25577e-11
1.16901e-06
4.55543e-11
1.16901e-06
4.35191e-12
1.16904e-06
-3.02645e-11
1.1691e-06
-5.79028e-11
1.16917e-06
-7.853e-11
1.16927e-06
-9.24379e-11
1.16937e-06
-1.00293e-10
1.16947e-06
-1.03048e-10
1.16957e-06
-1.01733e-10
1.16967e-06
-9.71888e-11
1.16976e-06
-9.00618e-11
1.16984e-06
-8.12122e-11
1.16991e-06
-7.21849e-11
1.16998e-06
-6.51736e-11
1.17004e-06
-6.26975e-11
1.17011e-06
-6.79015e-11
1.1702e-06
-8.52743e-11
1.17032e-06
-1.20487e-10
1.1705e-06
-1.79767e-10
1.17077e-06
-2.70163e-10
1.17116e-06
-3.99336e-10
1.17174e-06
-5.73311e-10
1.17253e-06
-7.94204e-10
1.17359e-06
-1.05966e-09
1.17495e-06
-1.36202e-09
1.17664e-06
-1.68774e-09
1.17866e-06
-2.02165e-09
1.18102e-06
-2.35516e-09
1.18371e-06
-2.69858e-09
1.18684e-06
-3.1299e-09
1.19074e-06
-3.89151e-09
-5.04688e-09
3.02365e-06
-1.20204e-08
3.0305e-06
-1.08542e-08
3.03728e-06
-1.00508e-08
3.04378e-06
-9.37241e-09
3.04981e-06
-8.62135e-09
3.05526e-06
-7.74899e-09
3.06003e-06
-6.76522e-09
3.06408e-06
-5.71351e-09
3.06739e-06
-4.66034e-09
3.07001e-06
-3.66757e-09
3.07201e-06
-2.7772e-09
3.07348e-06
-2.01959e-09
3.07451e-06
-1.40333e-09
3.0752e-06
-9.2255e-10
3.07563e-06
-5.63458e-10
3.07587e-06
-3.08584e-10
3.07599e-06
-1.37637e-10
3.07604e-06
-3.23422e-11
3.07604e-06
2.28674e-11
3.07602e-06
4.14812e-11
3.07601e-06
3.38941e-11
3.07601e-06
7.57994e-12
3.07605e-06
-3.17756e-11
3.07611e-06
-7.97319e-11
3.07622e-06
-1.3337e-10
3.07636e-06
-1.90671e-10
3.07655e-06
-2.49538e-10
3.07678e-06
-3.08052e-10
3.07705e-06
-3.65069e-10
3.07736e-06
-4.19507e-10
3.0777e-06
-4.69162e-10
3.07807e-06
-5.10629e-10
3.07846e-06
-5.40051e-10
3.07886e-06
-5.53313e-10
3.07925e-06
-5.45481e-10
3.07962e-06
-5.10736e-10
3.07993e-06
-4.43595e-10
3.08017e-06
-3.40691e-10
3.08031e-06
-2.01859e-10
3.08032e-06
-3.03333e-11
3.0802e-06
1.67333e-10
3.07992e-06
3.81355e-10
3.07948e-06
5.99214e-10
3.07889e-06
8.06976e-10
3.07818e-06
9.91181e-10
3.07735e-06
1.14055e-09
3.07645e-06
1.24685e-09
3.07551e-06
1.30483e-09
3.07456e-06
1.31144e-09
3.07365e-06
1.26495e-09
3.0728e-06
1.16427e-09
3.07208e-06
1.00859e-09
3.0715e-06
7.978e-10
3.07112e-06
5.33644e-10
3.07096e-06
2.21473e-10
3.07105e-06
-1.27915e-10
3.07141e-06
-4.97165e-10
3.07202e-06
-8.62716e-10
3.07288e-06
-1.19684e-09
3.07392e-06
-1.47114e-09
3.07511e-06
-1.66087e-09
3.07635e-06
-1.749e-09
3.07758e-06
-1.72921e-09
3.07873e-06
-1.60706e-09
3.07973e-06
-1.3991e-09
3.08055e-06
-1.13004e-09
3.08115e-06
-8.28833e-10
3.08153e-06
-5.243e-10
3.08172e-06
-2.41396e-10
3.08173e-06
1.38629e-12
3.0816e-06
1.93131e-10
3.08137e-06
3.3028e-10
3.08108e-06
4.15534e-10
3.08076e-06
4.56342e-10
3.08043e-06
4.63398e-10
3.0801e-06
4.49336e-10
3.07979e-06
4.27603e-10
3.07949e-06
4.11311e-10
3.07918e-06
4.1191e-10
3.07886e-06
4.37596e-10
3.07849e-06
4.91596e-10
3.07808e-06
5.70696e-10
3.0776e-06
6.645e-10
3.07705e-06
7.55899e-10
3.07647e-06
8.22983e-10
3.07587e-06
8.42341e-10
3.07532e-06
7.93252e-10
3.07486e-06
6.61994e-10
3.07455e-06
4.45323e-10
3.07446e-06
1.5226e-10
3.07461e-06
-1.96342e-10
3.07502e-06
-5.70512e-10
3.07569e-06
-9.35612e-10
3.0766e-06
-1.2576e-09
3.07767e-06
-1.50794e-09
3.07886e-06
-1.66723e-09
3.08009e-06
-1.72684e-09
3.0813e-06
-1.68849e-09
3.08242e-06
-1.5622e-09
3.08339e-06
-1.36331e-09
3.08418e-06
-1.10943e-09
3.08477e-06
-8.1807e-10
3.08513e-06
-5.05354e-10
3.08526e-06
-1.85714e-10
3.08517e-06
1.27712e-10
3.08487e-06
4.22529e-10
3.08438e-06
6.86816e-10
3.08373e-06
9.09355e-10
3.08295e-06
1.08036e-09
3.0821e-06
1.19251e-09
3.0812e-06
1.24207e-09
3.08032e-06
1.22973e-09
3.07948e-06
1.16092e-09
3.07873e-06
1.04517e-09
3.07808e-06
8.94676e-10
3.07755e-06
7.22538e-10
3.07716e-06
5.41426e-10
3.07689e-06
3.62745e-10
3.07674e-06
1.95935e-10
3.07669e-06
4.78191e-11
3.07674e-06
-7.76249e-11
3.07686e-06
-1.78823e-10
3.07704e-06
-2.55927e-10
3.07726e-06
-3.10185e-10
3.0775e-06
-3.43534e-10
3.07775e-06
-3.58503e-10
3.07801e-06
-3.58308e-10
3.07826e-06
-3.46763e-10
3.0785e-06
-3.27768e-10
3.07873e-06
-3.05039e-10
3.07893e-06
-2.82939e-10
3.07914e-06
-2.68008e-10
3.07934e-06
-2.69607e-10
3.07958e-06
-2.99572e-10
3.07986e-06
-3.72574e-10
3.08025e-06
-5.07151e-10
3.0808e-06
-7.25194e-10
3.08158e-06
-1.04958e-09
3.08268e-06
-1.50132e-09
3.0842e-06
-2.09636e-09
3.08625e-06
-2.84095e-09
3.08892e-06
-3.72589e-09
3.09228e-06
-4.72245e-09
3.09637e-06
-5.78285e-09
3.1012e-06
-6.84794e-09
3.10671e-06
-7.86325e-09
3.11281e-06
-8.79609e-09
3.11933e-06
-9.65317e-09
3.12602e-06
-1.05797e-08
-1.17896e-08
4.54201e-06
-1.77896e-08
4.54835e-06
-1.71894e-08
4.55519e-06
-1.68895e-08
4.56207e-06
-1.62585e-08
4.56866e-06
-1.52055e-08
4.57471e-06
-1.38011e-08
4.58008e-06
-1.2132e-08
4.58468e-06
-1.03141e-08
4.58849e-06
-8.47204e-09
4.59155e-06
-6.72168e-09
4.59391e-06
-5.14582e-09
4.59569e-06
-3.79296e-09
4.59697e-06
-2.68218e-09
4.59785e-06
-1.80789e-09
4.59844e-06
-1.14793e-09
4.5988e-06
-6.72329e-10
4.59901e-06
-3.48736e-10
4.59912e-06
-1.45258e-10
4.59918e-06
-3.45034e-11
4.59922e-06
6.51121e-12
4.59926e-06
-4.23654e-12
4.59931e-06
-5.17375e-11
4.59941e-06
-1.25219e-10
4.59954e-06
-2.16903e-10
4.59973e-06
-3.2068e-10
4.59997e-06
-4.31661e-10
4.60027e-06
-5.46025e-10
4.60062e-06
-6.60642e-10
4.60103e-06
-7.72424e-10
4.60149e-06
-8.77642e-10
4.60199e-06
-9.71492e-10
4.60253e-06
-1.04799e-09
4.60309e-06
-1.09985e-09
4.60365e-06
-1.11837e-09
4.6042e-06
-1.09348e-09
4.6047e-06
-1.01469e-09
4.60513e-06
-8.727e-10
4.60545e-06
-6.61516e-10
4.60563e-06
-3.8035e-10
4.60564e-06
-3.50133e-11
4.60544e-06
3.61497e-10
4.60504e-06
7.89558e-10
4.60441e-06
1.22465e-09
4.60358e-06
1.64007e-09
4.60256e-06
2.01003e-09
4.60139e-06
2.31222e-09
4.6001e-06
2.52946e-09
4.59876e-06
2.64998e-09
4.5974e-06
2.66666e-09
4.59609e-06
2.57543e-09
4.59488e-06
2.37393e-09
4.59383e-06
2.06083e-09
4.59299e-06
1.63665e-09
4.59242e-06
1.10609e-09
4.59216e-06
4.81266e-10
4.59224e-06
-2.15107e-10
4.5927e-06
-9.48068e-10
4.5935e-06
-1.67128e-09
4.59464e-06
-2.33096e-09
4.59604e-06
-2.87249e-09
4.59763e-06
-3.24839e-09
4.5993e-06
-3.42611e-09
4.60097e-06
-3.39361e-09
4.60252e-06
-3.16162e-09
4.60388e-06
-2.76187e-09
4.605e-06
-2.24186e-09
4.60583e-06
-1.6573e-09
4.60637e-06
-1.06387e-09
4.60664e-06
-5.10067e-10
4.60667e-06
-3.21679e-11
4.60651e-06
3.48112e-10
4.60622e-06
6.23286e-10
4.60584e-06
7.98244e-10
4.60541e-06
8.87317e-10
4.60496e-06
9.11295e-10
4.60451e-06
8.94708e-10
4.60408e-06
8.63406e-10
4.60365e-06
8.42197e-10
4.6032e-06
8.52243e-10
4.60273e-06
9.08116e-10
4.60221e-06
1.01476e-09
4.60162e-06
1.16499e-09
4.60094e-06
1.33834e-09
4.6002e-06
1.50213e-09
4.59941e-06
1.61523e-09
4.59862e-06
1.63419e-09
4.59789e-06
1.52105e-09
4.5973e-06
1.25126e-09
4.59692e-06
8.2001e-10
4.59683e-06
2.45386e-10
4.59707e-06
-4.32516e-10
4.59765e-06
-1.15668e-09
4.59858e-06
-1.8614e-09
4.5998e-06
-2.48213e-09
4.60126e-06
-2.96456e-09
4.60287e-06
-3.27146e-09
4.60452e-06
-3.38582e-09
4.60615e-06
-3.31019e-09
4.60765e-06
-3.06309e-09
4.60896e-06
-2.67348e-09
4.61002e-06
-2.1752e-09
4.61081e-06
-1.60238e-09
4.61129e-06
-9.86783e-10
4.61146e-06
-3.57023e-10
4.61132e-06
2.60852e-10
4.6109e-06
8.42337e-10
4.61023e-06
1.36393e-09
4.60933e-06
1.80364e-09
4.60827e-06
2.14249e-09
4.60709e-06
2.36658e-09
4.60587e-06
2.46902e-09
4.60464e-06
2.45113e-09
4.60348e-06
2.32271e-09
4.60243e-06
2.10129e-09
4.60151e-06
1.80999e-09
4.60076e-06
1.47454e-09
4.60018e-06
1.12007e-09
4.59978e-06
7.68824e-10
4.59953e-06
4.38842e-10
4.59944e-06
1.43435e-10
4.59947e-06
-1.08962e-10
4.5996e-06
-3.1441e-10
4.59982e-06
-4.72646e-10
4.6001e-06
-5.86043e-10
4.60041e-06
-6.58615e-10
4.60075e-06
-6.95375e-10
4.60109e-06
-7.0227e-10
4.60143e-06
-6.86343e-10
4.60176e-06
-6.55516e-10
4.60208e-06
-6.18152e-10
4.60238e-06
-5.83518e-10
4.60267e-06
-5.63676e-10
4.60298e-06
-5.75294e-10
4.60332e-06
-6.39871e-10
4.60373e-06
-7.83731e-10
4.60426e-06
-1.03908e-09
4.60498e-06
-1.44383e-09
4.60597e-06
-2.03772e-09
4.60732e-06
-2.85625e-09
4.60915e-06
-3.92468e-09
4.61156e-06
-5.25117e-09
4.61465e-06
-6.81699e-09
4.6185e-06
-8.56779e-09
4.62313e-06
-1.04128e-08
4.62851e-06
-1.22326e-08
4.63455e-06
-1.38981e-08
4.64104e-06
-1.52866e-08
4.64765e-06
-1.62659e-08
4.65391e-06
-1.6834e-08
-1.75279e-08
5.74374e-06
-2.05665e-08
5.74708e-06
-2.05293e-08
5.75102e-06
-2.08318e-08
5.75524e-06
-2.04722e-08
5.75942e-06
-1.93873e-08
5.76336e-06
-1.77437e-08
5.76692e-06
-1.56963e-08
5.77003e-06
-1.34193e-08
5.77265e-06
-1.10916e-08
5.77479e-06
-8.8632e-09
5.77649e-06
-6.84438e-09
5.7778e-06
-5.10122e-09
5.77878e-06
-3.66087e-09
5.77949e-06
-2.5172e-09
5.77999e-06
-1.64646e-09
5.78033e-06
-1.01345e-09
5.78056e-06
-5.77447e-10
5.78071e-06
-3.00388e-10
5.78083e-06
-1.49028e-10
5.78093e-06
-9.39344e-11
5.78103e-06
-1.10792e-10
5.78116e-06
-1.80961e-10
5.78133e-06
-2.90274e-10
5.78154e-06
-4.27293e-10
5.7818e-06
-5.82846e-10
5.78212e-06
-7.49938e-10
5.7825e-06
-9.22896e-10
5.78293e-06
-1.09631e-09
5.78342e-06
-1.26444e-09
5.78396e-06
-1.42097e-09
5.78455e-06
-1.5585e-09
5.78517e-06
-1.66808e-09
5.78581e-06
-1.7386e-09
5.78645e-06
-1.75666e-09
5.78706e-06
-1.70707e-09
5.78762e-06
-1.57437e-09
5.7881e-06
-1.34506e-09
5.78844e-06
-1.0104e-09
5.78863e-06
-5.69261e-10
5.78863e-06
-3.0359e-11
5.7884e-06
5.86779e-10
5.78794e-06
1.25265e-09
5.78723e-06
1.93039e-09
5.78629e-06
2.5797e-09
5.78514e-06
3.16121e-09
5.78381e-06
3.64022e-09
5.78235e-06
3.98917e-09
5.78082e-06
4.18843e-09
5.77926e-06
4.2254e-09
5.77774e-06
4.09255e-09
5.77633e-06
3.78549e-09
5.77509e-06
3.30217e-09
5.77408e-06
2.64415e-09
5.77337e-06
1.82004e-09
5.773e-06
8.50156e-10
5.77301e-06
-2.29085e-10
5.77343e-06
-1.36297e-09
5.77423e-06
-2.48011e-09
5.7754e-06
-3.49842e-09
5.77686e-06
-4.33501e-09
5.77853e-06
-4.91813e-09
5.78031e-06
-5.19867e-09
5.78207e-06
-5.15852e-09
5.78372e-06
-4.81388e-09
5.78517e-06
-4.21273e-09
5.78636e-06
-3.42693e-09
5.78724e-06
-2.54097e-09
5.78782e-06
-1.63957e-09
5.78811e-06
-7.9676e-10
5.78814e-06
-6.82312e-11
5.78798e-06
5.12612e-10
5.78767e-06
9.34142e-10
5.78726e-06
1.20399e-09
5.7868e-06
1.34441e-09
5.78633e-06
1.38756e-09
5.78585e-06
1.37102e-09
5.78538e-06
1.33384e-09
5.78491e-06
1.3128e-09
5.78442e-06
1.33847e-09
5.7839e-06
1.43098e-09
5.78332e-06
1.59593e-09
5.78266e-06
1.82096e-09
5.78193e-06
2.07453e-09
5.78112e-06
2.30775e-09
5.78028e-06
2.45999e-09
5.77944e-06
2.46792e-09
5.77869e-06
2.27687e-09
5.77809e-06
1.85224e-09
5.77772e-06
1.18857e-09
5.77765e-06
3.14052e-10
5.77793e-06
-7.1097e-10
5.77857e-06
-1.80145e-09
5.77957e-06
-2.85976e-09
5.78088e-06
-3.78998e-09
5.78243e-06
-4.51137e-09
5.78412e-06
-4.96839e-09
5.78587e-06
-5.13543e-09
5.78758e-06
-5.01607e-09
5.78915e-06
-4.63766e-09
5.79052e-06
-4.04344e-09
5.79163e-06
-3.2842e-09
5.79244e-06
-2.41151e-09
5.79293e-06
-1.4737e-09
5.79309e-06
-5.14449e-10
5.79292e-06
4.26511e-10
5.79245e-06
1.31205e-09
5.79171e-06
2.10682e-09
5.79073e-06
2.7778e-09
5.78958e-06
3.29644e-09
5.7883e-06
3.64174e-09
5.78697e-06
3.80317e-09
5.78564e-06
3.78262e-09
5.78436e-06
3.59452e-09
5.7832e-06
3.26454e-09
5.78218e-06
2.82672e-09
5.78134e-06
2.31941e-09
5.78068e-06
1.78078e-09
5.7802e-06
1.24489e-09
5.7799e-06
7.39396e-10
5.77976e-06
2.84676e-10
5.77976e-06
-1.06062e-10
5.77987e-06
-4.26191e-10
5.78007e-06
-6.74644e-10
5.78034e-06
-8.54657e-10
5.78065e-06
-9.72491e-10
5.781e-06
-1.03632e-09
5.78135e-06
-1.05548e-09
5.7817e-06
-1.04019e-09
5.78205e-06
-1.00167e-09
5.78238e-06
-9.5234e-10
5.78271e-06
-9.06258e-10
5.78302e-06
-8.80279e-10
5.78334e-06
-8.96061e-10
5.78369e-06
-9.81626e-10
5.78408e-06
-1.17177e-09
5.78454e-06
-1.50794e-09
5.78514e-06
-2.03721e-09
5.78591e-06
-2.80881e-09
5.78692e-06
-3.86767e-09
5.78824e-06
-5.24499e-09
5.78993e-06
-6.94771e-09
5.79206e-06
-8.94788e-09
5.79467e-06
-1.11725e-08
5.79776e-06
-1.34991e-08
5.80128e-06
-1.57603e-08
5.80515e-06
-1.7763e-08
5.80917e-06
-1.93049e-08
5.81305e-06
-2.01483e-08
5.81644e-06
-2.02273e-08
-2.03928e-08
6.65887e-06
-1.9132e-08
6.65778e-06
-1.94372e-08
6.65705e-06
-2.01077e-08
6.65662e-06
-2.00366e-08
6.65639e-06
-1.9157e-08
6.6563e-06
-1.76566e-08
6.65632e-06
-1.57135e-08
6.65641e-06
-1.35148e-08
6.65656e-06
-1.12429e-08
6.65675e-06
-9.05276e-09
6.65696e-06
-7.05782e-09
6.65718e-06
-5.32292e-09
6.6574e-06
-3.87751e-09
6.65761e-06
-2.7225e-09
6.6578e-06
-1.83606e-09
6.65797e-06
-1.18504e-09
6.65813e-06
-7.33783e-10
6.65827e-06
-4.47773e-10
6.65842e-06
-2.94598e-10
6.65857e-06
-2.45708e-10
6.65874e-06
-2.78059e-10
6.65893e-06
-3.73232e-10
6.65915e-06
-5.15693e-10
6.65942e-06
-6.92423e-10
6.65973e-06
-8.9305e-10
6.66009e-06
-1.10906e-09
6.6605e-06
-1.33264e-09
6.66096e-06
-1.5561e-09
6.66147e-06
-1.77163e-09
6.66202e-06
-1.97078e-09
6.6626e-06
-2.14368e-09
6.66321e-06
-2.27834e-09
6.66384e-06
-2.36015e-09
6.66445e-06
-2.37178e-09
6.66504e-06
-2.29369e-09
6.66557e-06
-2.10595e-09
6.66602e-06
-1.79119e-09
6.66634e-06
-1.33819e-09
6.66652e-06
-7.4552e-10
6.66651e-06
-2.42497e-11
6.6663e-06
8.00757e-10
6.66586e-06
1.69176e-09
6.66519e-06
2.6012e-09
6.66429e-06
3.47655e-09
6.66319e-06
4.26572e-09
6.66191e-06
4.92206e-09
6.66049e-06
5.4077e-09
6.65898e-06
5.69473e-09
6.65744e-06
5.76441e-09
6.65593e-06
5.60489e-09
6.65451e-06
5.20906e-09
6.65324e-06
4.57378e-09
6.65218e-06
3.70164e-09
6.65139e-06
2.60529e-09
6.65093e-06
1.31331e-09
6.65082e-06
-1.24462e-10
6.6511e-06
-1.63439e-09
6.65174e-06
-3.12144e-09
6.65272e-06
-4.47712e-09
6.65397e-06
-5.59238e-09
6.65543e-06
-6.3731e-09
6.65698e-06
-6.75495e-09
6.65854e-06
-6.71422e-09
6.66e-06
-6.27217e-09
6.66128e-06
-5.49172e-09
6.66232e-06
-4.46728e-09
6.66309e-06
-3.31005e-09
6.66358e-06
-2.13178e-09
6.66381e-06
-1.03032e-09
6.66382e-06
-7.92895e-11
6.66366e-06
6.77155e-10
6.66337e-06
1.22424e-09
6.663e-06
1.57286e-09
6.66259e-06
1.75353e-09
6.66217e-06
1.80972e-09
6.66175e-06
1.79154e-09
6.66133e-06
1.75015e-09
6.66091e-06
1.73265e-09
6.66047e-06
1.77707e-09
6.66e-06
1.90723e-09
6.65947e-06
2.12782e-09
6.65887e-06
2.42074e-09
6.6582e-06
2.74393e-09
6.65747e-06
3.03407e-09
6.65672e-06
3.21386e-09
6.65598e-06
3.20351e-09
6.65532e-06
2.93491e-09
6.65481e-06
2.36592e-09
6.65451e-06
1.49159e-09
6.65447e-06
3.49696e-10
6.65474e-06
-9.81325e-10
6.65533e-06
-2.39191e-09
6.65623e-06
-3.75676e-09
6.65739e-06
-4.95299e-09
6.65876e-06
-5.87724e-09
6.66025e-06
-6.45843e-09
6.66178e-06
-6.66392e-09
6.66326e-06
-6.49856e-09
6.66462e-06
-5.99793e-09
6.66579e-06
-5.21808e-09
6.66674e-06
-4.22492e-09
6.66741e-06
-3.08541e-09
6.6678e-06
-1.86233e-09
6.6679e-06
-6.12447e-10
6.66771e-06
6.12733e-10
6.66725e-06
1.76531e-09
6.66656e-06
2.79994e-09
6.66566e-06
3.67446e-09
6.66461e-06
4.35225e-09
6.66344e-06
4.80605e-09
6.66223e-06
5.02179e-09
6.66101e-06
5.0013e-09
6.65984e-06
4.76286e-09
6.65876e-06
4.33918e-09
6.65782e-06
3.77366e-09
6.65702e-06
3.1153e-09
6.65639e-06
2.41334e-09
6.65592e-06
1.71238e-09
6.65561e-06
1.04905e-09
6.65545e-06
4.50543e-10
6.65541e-06
-6.54804e-11
6.65547e-06
-4.90015e-10
6.65562e-06
-8.21284e-10
6.65582e-06
-1.06312e-09
6.65607e-06
-1.22357e-09
6.65635e-06
-1.31374e-09
6.65664e-06
-1.34643e-09
6.65694e-06
-1.33497e-09
6.65723e-06
-1.293e-09
6.65751e-06
-1.23518e-09
6.65778e-06
-1.17798e-09
6.65804e-06
-1.14009e-09
6.65829e-06
-1.14372e-09
6.65853e-06
-1.21709e-09
6.65875e-06
-1.3957e-09
6.65896e-06
-1.72155e-09
6.65917e-06
-2.2408e-09
6.65936e-06
-3.00092e-09
6.65954e-06
-4.04602e-09
6.6597e-06
-5.40711e-09
6.65984e-06
-7.08961e-09
6.65996e-06
-9.06321e-09
6.66004e-06
-1.12525e-08
6.66007e-06
-1.35306e-08
6.66003e-06
-1.57208e-08
6.65988e-06
-1.7616e-08
6.65957e-06
-1.89916e-08
6.659e-06
-1.95849e-08
6.6581e-06
-1.93238e-08
-1.91506e-08
7.30528e-06
-1.34435e-08
7.29965e-06
-1.38023e-08
7.294e-06
-1.44578e-08
7.28851e-06
-1.45531e-08
7.28339e-06
-1.40305e-08
7.27876e-06
-1.30305e-08
7.27473e-06
-1.16836e-08
7.27135e-06
-1.0132e-08
7.26862e-06
-8.51208e-09
7.2665e-06
-6.93725e-09
7.26494e-06
-5.48822e-09
7.26383e-06
-4.21669e-09
7.2631e-06
-3.14677e-09
7.26265e-06
-2.28078e-09
7.26242e-06
-1.60697e-09
7.26235e-06
-1.10683e-09
7.26237e-06
-7.59229e-10
7.26246e-06
-5.42141e-10
7.2626e-06
-4.34604e-10
7.26278e-06
-4.18406e-10
7.26298e-06
-4.77864e-10
7.2632e-06
-5.98647e-10
7.26345e-06
-7.67623e-10
7.26373e-06
-9.73408e-10
7.26405e-06
-1.20606e-09
7.26439e-06
-1.45614e-09
7.26477e-06
-1.71435e-09
7.26519e-06
-1.97158e-09
7.26564e-06
-2.21864e-09
7.26611e-06
-2.4454e-09
7.26661e-06
-2.63995e-09
7.26712e-06
-2.78798e-09
7.26763e-06
-2.87242e-09
7.26813e-06
-2.87319e-09
7.2686e-06
-2.76773e-09
7.26903e-06
-2.53298e-09
7.26939e-06
-2.14873e-09
7.26965e-06
-1.60176e-09
7.2698e-06
-8.89965e-10
7.2698e-06
-2.55467e-11
7.26964e-06
9.63376e-10
7.26929e-06
2.03356e-09
7.26876e-06
3.12989e-09
7.26805e-06
4.19072e-09
7.26716e-06
5.15411e-09
7.26612e-06
5.96369e-09
7.26496e-06
6.57275e-09
7.26371e-06
6.94593e-09
7.26241e-06
7.05848e-09
7.26112e-06
6.894e-09
7.25989e-06
6.44228e-09
7.25877e-06
5.6987e-09
7.2578e-06
4.66645e-09
7.25704e-06
3.36153e-09
7.25654e-06
1.81944e-09
7.25631e-06
1.01121e-10
7.25638e-06
-1.70445e-09
7.25674e-06
-3.48332e-09
7.25737e-06
-5.10612e-09
7.25822e-06
-6.44326e-09
7.25923e-06
-7.38315e-09
7.26033e-06
-7.8496e-09
7.26143e-06
-7.81457e-09
7.26246e-06
-7.30332e-09
7.26336e-06
-6.39052e-09
7.26408e-06
-5.18837e-09
7.2646e-06
-3.82919e-09
7.26491e-06
-2.44613e-09
7.26504e-06
-1.15584e-09
7.265e-06
-4.58421e-11
7.26485e-06
8.31805e-10
7.26461e-06
1.4607e-09
7.26433e-06
1.85552e-09
7.26403e-06
2.05454e-09
7.26373e-06
2.11116e-09
7.26343e-06
2.08595e-09
7.26314e-06
2.0395e-09
7.26285e-06
2.02622e-09
7.26254e-06
2.08861e-09
7.2622e-06
2.25166e-09
7.26181e-06
2.51779e-09
7.26136e-06
2.86327e-09
7.26087e-06
3.23745e-09
7.26034e-06
3.56631e-09
7.25979e-06
3.76095e-09
7.25926e-06
3.73067e-09
7.2588e-06
3.39901e-09
7.25844e-06
2.71975e-09
7.25825e-06
1.6895e-09
7.25824e-06
3.53711e-10
7.25846e-06
-1.19576e-09
7.2589e-06
-2.83176e-09
7.25955e-06
-4.40946e-09
7.26038e-06
-5.78723e-09
7.26135e-06
-6.84626e-09
7.2624e-06
-7.50516e-09
7.26346e-06
-7.72707e-09
7.26448e-06
-7.51856e-09
7.26541e-06
-6.92175e-09
7.26619e-06
-6.0025e-09
7.26681e-06
-4.83785e-09
7.26723e-06
-3.50589e-09
7.26744e-06
-2.07952e-09
7.26746e-06
-6.24332e-10
7.26727e-06
8.00399e-10
7.26689e-06
2.13976e-09
7.26635e-06
3.34193e-09
7.26567e-06
4.35875e-09
7.26487e-06
5.14837e-09
7.264e-06
5.6793e-09
7.26308e-06
5.93476e-09
7.26217e-06
5.91603e-09
7.26129e-06
5.6434e-09
7.26047e-06
5.15423e-09
7.25975e-06
4.49837e-09
7.25913e-06
3.73224e-09
7.25863e-06
2.91277e-09
7.25825e-06
2.0921e-09
7.25799e-06
1.31366e-09
7.25783e-06
6.10021e-10
7.25776e-06
2.42316e-12
7.25777e-06
-4.98378e-10
7.25784e-06
-8.90309e-10
7.25795e-06
-1.17788e-09
7.2581e-06
-1.37052e-09
7.25827e-06
-1.48128e-09
7.25845e-06
-1.52535e-09
7.25863e-06
-1.51839e-09
7.25881e-06
-1.47547e-09
7.25899e-06
-1.41154e-09
7.25915e-06
-1.34213e-09
7.2593e-06
-1.28361e-09
7.25941e-06
-1.25399e-09
7.25947e-06
-1.27487e-09
7.25944e-06
-1.37306e-09
7.2593e-06
-1.58027e-09
7.25899e-06
-1.93121e-09
7.25845e-06
-2.46109e-09
7.25761e-06
-3.20238e-09
7.25638e-06
-4.17813e-09
7.25468e-06
-5.39252e-09
7.25244e-06
-6.82337e-09
7.24961e-06
-8.41442e-09
7.24614e-06
-1.00694e-08
7.24208e-06
-1.16536e-08
7.23747e-06
-1.3007e-08
7.23243e-06
-1.39547e-08
7.22714e-06
-1.42953e-08
7.2218e-06
-1.39789e-08
-1.3734e-08
7.6916e-06
-4.643e-09
7.68262e-06
-4.81525e-09
7.67328e-06
-5.12199e-09
7.66397e-06
-5.24262e-09
7.65509e-06
-5.14818e-09
7.64694e-06
-4.88336e-09
7.63975e-06
-4.49029e-09
7.63363e-06
-4.01465e-09
7.62862e-06
-3.49759e-09
7.62466e-06
-2.97708e-09
7.62165e-06
-2.48065e-09
7.61946e-06
-2.02646e-09
7.61794e-06
-1.62577e-09
7.61695e-06
-1.28484e-09
7.61635e-06
-1.00696e-09
7.61604e-06
-7.93651e-10
7.61592e-06
-6.45154e-10
7.61594e-06
-5.60603e-10
7.61605e-06
-5.3838e-10
7.6162e-06
-5.76e-10
7.61639e-06
-6.69291e-10
7.61661e-06
-8.12161e-10
7.61684e-06
-9.97401e-10
7.61708e-06
-1.21735e-09
7.61734e-06
-1.46377e-09
7.61761e-06
-1.72765e-09
7.6179e-06
-1.99961e-09
7.6182e-06
-2.27009e-09
7.61851e-06
-2.52904e-09
7.61883e-06
-2.76517e-09
7.61915e-06
-2.96543e-09
7.61948e-06
-3.11446e-09
7.6198e-06
-3.19406e-09
7.62011e-06
-3.18288e-09
7.6204e-06
-3.05701e-09
7.62066e-06
-2.79202e-09
7.62088e-06
-2.3663e-09
7.62104e-06
-1.76524e-09
7.62114e-06
-9.85631e-10
7.62115e-06
-3.93362e-11
7.62107e-06
1.04474e-09
7.62088e-06
2.2212e-09
7.62058e-06
3.43141e-09
7.62016e-06
4.60899e-09
7.61963e-06
5.68646e-09
7.61899e-06
6.60148e-09
7.61826e-06
7.30143e-09
7.61747e-06
7.74545e-09
7.61662e-06
7.90393e-09
7.61576e-06
7.75649e-09
7.61491e-06
7.28996e-09
7.61411e-06
6.49803e-09
7.61339e-06
5.38383e-09
7.61279e-06
3.96536e-09
7.61233e-06
2.28248e-09
7.61203e-06
4.03147e-10
7.61189e-06
-1.57417e-09
7.61194e-06
-3.52404e-09
7.61213e-06
-5.3046e-09
7.61247e-06
-6.77412e-09
7.61289e-06
-7.81073e-09
7.61337e-06
-8.33134e-09
7.61387e-06
-8.30544e-09
7.61432e-06
-7.76074e-09
7.61471e-06
-6.77902e-09
7.61501e-06
-5.48324e-09
7.61519e-06
-4.01847e-09
7.61528e-06
-2.53076e-09
7.61527e-06
-1.14788e-09
7.61519e-06
3.47146e-11
7.61506e-06
9.611e-10
7.61491e-06
1.61517e-09
7.61475e-06
2.01544e-09
7.61459e-06
2.20642e-09
7.61446e-06
2.24882e-09
7.61433e-06
2.21014e-09
7.61422e-06
2.15652e-09
7.6141e-06
2.14583e-09
7.61397e-06
2.22158e-09
7.61381e-06
2.40749e-09
7.61363e-06
2.70277e-09
7.61341e-06
3.07908e-09
7.61317e-06
3.48033e-09
7.6129e-06
3.82683e-09
7.61264e-06
4.02446e-09
7.61239e-06
3.97832e-09
7.61218e-06
3.60942e-09
7.61203e-06
2.87118e-09
7.61196e-06
1.76235e-09
7.61198e-06
3.33142e-10
7.6121e-06
-1.31763e-09
7.61232e-06
-3.05429e-09
7.61264e-06
-4.72305e-09
7.61302e-06
-6.17401e-09
7.61346e-06
-7.28198e-09
7.61392e-06
-7.96186e-09
7.61436e-06
-8.17604e-09
7.61478e-06
-7.93315e-09
7.61514e-06
-7.2795e-09
7.61542e-06
-6.28639e-09
7.61562e-06
-5.03663e-09
7.61573e-06
-3.61366e-09
7.61575e-06
-2.09478e-09
7.61567e-06
-5.49003e-10
7.61551e-06
9.61856e-10
7.61527e-06
2.38077e-09
7.61496e-06
3.65391e-09
7.61458e-06
4.73111e-09
7.61416e-06
5.56858e-09
7.61371e-06
6.13314e-09
7.61324e-06
6.40671e-09
7.61276e-06
6.3898e-09
7.6123e-06
6.10286e-09
7.61187e-06
5.58458e-09
7.61148e-06
4.88733e-09
7.61115e-06
4.07083e-09
7.61086e-06
3.19564e-09
7.61064e-06
2.31763e-09
7.61047e-06
1.48373e-09
7.61035e-06
7.29414e-10
7.61027e-06
7.79348e-11
7.61023e-06
-4.5895e-10
7.61022e-06
-8.79164e-10
7.61023e-06
-1.18804e-09
7.61026e-06
-1.39619e-09
7.61029e-06
-1.51773e-09
7.61034e-06
-1.56873e-09
7.61039e-06
-1.56555e-09
7.61043e-06
-1.52345e-09
7.61048e-06
-1.45582e-09
7.61051e-06
-1.37442e-09
7.61052e-06
-1.28964e-09
7.61047e-06
-1.21122e-09
7.61035e-06
-1.14917e-09
7.61009e-06
-1.11461e-09
7.60963e-06
-1.12009e-09
7.60888e-06
-1.1799e-09
7.60772e-06
-1.30894e-09
7.60604e-06
-1.52087e-09
7.60369e-06
-1.82582e-09
7.60052e-06
-2.22701e-09
7.59642e-06
-2.71828e-09
7.59128e-06
-3.28032e-09
7.58509e-06
-3.87719e-09
7.5779e-06
-4.45853e-09
7.56985e-06
-4.96208e-09
7.56122e-06
-5.3185e-09
7.55237e-06
-5.44731e-09
7.54371e-06
-5.32692e-09
-5.22847e-09
7.82092e-06
5.28683e-09
7.81071e-06
5.39221e-09
7.80002e-06
5.56665e-09
7.78929e-06
5.48784e-09
7.77901e-06
5.14019e-09
7.76953e-06
4.59039e-09
7.76113e-06
3.90647e-09
7.75396e-06
3.15745e-09
7.74806e-06
2.40838e-09
7.74336e-06
1.71372e-09
7.73977e-06
1.10984e-09
7.73713e-06
6.15727e-10
7.73527e-06
2.35432e-10
7.73403e-06
-4.01233e-11
7.73325e-06
-2.29309e-10
7.73281e-06
-3.55345e-10
7.73261e-06
-4.4284e-10
7.73256e-06
-5.14942e-10
7.73262e-06
-5.91241e-10
7.73273e-06
-6.86462e-10
7.73287e-06
-8.09846e-10
7.73302e-06
-9.65504e-10
7.73318e-06
-1.15344e-09
7.73333e-06
-1.37048e-09
7.73347e-06
-1.61093e-09
7.73361e-06
-1.86736e-09
7.73375e-06
-2.13132e-09
7.73387e-06
-2.39353e-09
7.73398e-06
-2.64375e-09
7.73409e-06
-2.87048e-09
7.73418e-06
-3.06075e-09
7.73427e-06
-3.19952e-09
7.73434e-06
-3.26897e-09
7.73441e-06
-3.24814e-09
7.73446e-06
-3.11362e-09
7.73451e-06
-2.84138e-09
7.73456e-06
-2.40982e-09
7.7346e-06
-1.80371e-09
7.73463e-06
-1.01862e-09
7.73466e-06
-6.48407e-11
7.73467e-06
1.03033e-09
7.73467e-06
2.22286e-09
7.73465e-06
3.45505e-09
7.73459e-06
4.66083e-09
7.73451e-06
5.77229e-09
7.73438e-06
6.72586e-09
7.73422e-06
7.46699e-09
7.73401e-06
7.95231e-09
7.73377e-06
8.14951e-09
7.73349e-06
8.03559e-09
7.73318e-06
7.59518e-09
7.73286e-06
6.82044e-09
7.73253e-06
5.7138e-09
7.7322e-06
4.29347e-09
7.73189e-06
2.60036e-09
7.73158e-06
7.04083e-10
7.73131e-06
-1.29476e-09
7.73105e-06
-3.26846e-09
7.73082e-06
-5.0729e-09
7.73061e-06
-6.56435e-09
7.73042e-06
-7.61935e-09
7.73024e-06
-8.1538e-09
7.73007e-06
-8.13695e-09
7.72991e-06
-7.59712e-09
7.72975e-06
-6.61758e-09
7.72958e-06
-5.32349e-09
7.72943e-06
-3.8625e-09
7.72928e-06
-2.38315e-09
7.72915e-06
-1.01509e-09
7.72904e-06
1.45502e-10
7.72895e-06
1.04336e-09
7.7289e-06
1.66449e-09
7.72889e-06
2.03057e-09
7.72891e-06
2.18981e-09
7.72895e-06
2.20631e-09
7.72901e-06
2.14999e-09
7.72908e-06
2.08789e-09
7.72915e-06
2.07707e-09
7.72921e-06
2.1588e-09
7.72927e-06
2.35357e-09
7.72931e-06
2.65727e-09
7.72935e-06
3.0388e-09
7.72939e-06
3.44058e-09
7.72943e-06
3.78303e-09
7.72948e-06
3.97353e-09
7.72954e-06
3.91988e-09
7.7296e-06
3.54621e-09
7.72967e-06
2.80892e-09
7.72972e-06
1.70899e-09
7.72976e-06
2.97672e-10
7.72976e-06
-1.32648e-09
7.72974e-06
-3.02925e-09
7.72968e-06
-4.65924e-09
7.72957e-06
-6.06952e-09
7.72943e-06
-7.13803e-09
7.72925e-06
-7.7827e-09
7.72904e-06
-7.96858e-09
7.72882e-06
-7.70631e-09
7.72858e-06
-7.04349e-09
7.72835e-06
-6.05188e-09
7.72812e-06
-4.81395e-09
7.72792e-06
-3.41206e-09
7.72775e-06
-1.92177e-09
7.72761e-06
-4.09793e-10
7.72751e-06
1.06473e-09
7.72744e-06
2.44763e-09
7.72741e-06
3.68777e-09
7.7274e-06
4.73716e-09
7.72742e-06
5.55352e-09
7.72745e-06
6.10443e-09
7.72748e-06
6.37187e-09
7.72751e-06
6.35567e-09
7.72754e-06
6.07484e-09
7.72756e-06
5.5663e-09
7.72757e-06
4.88072e-09
7.72756e-06
4.07659e-09
7.72754e-06
3.21374e-09
7.72751e-06
2.34762e-09
7.72747e-06
1.52496e-09
7.72742e-06
7.81112e-10
7.72736e-06
1.39222e-10
7.72729e-06
-3.88973e-10
7.72721e-06
-8.01532e-10
7.72713e-06
-1.10427e-09
7.72704e-06
-1.30849e-09
7.72695e-06
-1.42864e-09
7.72686e-06
-1.48045e-09
7.72678e-06
-1.47952e-09
7.72669e-06
-1.43973e-09
7.72661e-06
-1.37172e-09
7.72652e-06
-1.28199e-09
7.7264e-06
-1.17328e-09
7.72623e-06
-1.04503e-09
7.72598e-06
-8.93483e-10
7.72558e-06
-7.11546e-10
7.72495e-06
-4.89651e-10
7.72398e-06
-2.17966e-10
7.72256e-06
1.12681e-10
7.72053e-06
5.10419e-10
7.71773e-06
9.7949e-10
7.71398e-06
1.5168e-09
7.70915e-06
2.10994e-09
7.70314e-06
2.73543e-09
7.6959e-06
3.35578e-09