/*--------------------------------*- C++ -*----------------------------------*\
| =========                 |                                                 |
| \\      /  F ield         | OpenFOAM: The Open Source CFD Toolbox           |
|  \\    /   O peration     | Version:  2406                                  |
|   \\  /    A nd           | Website:  www.openfoam.com                      |
|    \\/     M anipulation  |                                                 |
\*---------------------------------------------------------------------------*/
FoamFile
{
    version     2.0;
    format      ascii;
    arch        "LSB;label=32;scalar=64";
    class       volVectorField;
    location    "0.1";
    object      U;
}
// * * * * * * * * * * * * * * * * * * * * * * * * * * * * * * * * * * * * * //

dimensions      [0 1 -1 0 0 0 0];

internalField   nonuniform List<vector> 
2250
(
(0.0171361 -3.52322e-05 0)
(0.0172086 -2.49845e-05 0)
(0.0172686 -1.81113e-05 0)
(0.0173147 -1.47619e-05 0)
(0.0173551 -1.28057e-05 0)
(0.0173919 -1.11772e-05 0)
(0.0174242 -9.55566e-06 0)
(0.0174517 -7.90538e-06 0)
(0.0174742 -6.27822e-06 0)
(0.0174921 -4.76898e-06 0)
(0.0175056 -3.45059e-06 0)
(0.0175155 -2.35384e-06 0)
(0.0175223 -1.48861e-06 0)
(0.0175267 -8.38943e-07 0)
(0.0175294 -3.815e-07 0)
(0.0175307 -7.92406e-08 0)
(0.0175313 1.06802e-07 0)
(0.0175312 2.02819e-07 0)
(0.0175309 2.34522e-07 0)
(0.0175305 2.24412e-07 0)
(0.0175302 1.90672e-07 0)
(0.0175299 1.39453e-07 0)
(0.0175298 7.15235e-08 0)
(0.0175299 -3.82429e-09 0)
(0.0175302 -7.78089e-08 0)
(0.0175308 -1.54517e-07 0)
(0.0175316 -2.40088e-07 0)
(0.0175326 -3.2877e-07 0)
(0.017534 -4.10553e-07 0)
(0.0175355 -4.84693e-07 0)
(0.0175373 -5.56108e-07 0)
(0.0175393 -6.23453e-07 0)
(0.0175415 -6.78678e-07 0)
(0.0175438 -7.15164e-07 0)
(0.0175461 -7.28697e-07 0)
(0.0175484 -7.10789e-07 0)
(0.0175505 -6.47388e-07 0)
(0.0175522 -5.27115e-07 0)
(0.0175535 -3.49109e-07 0)
(0.0175541 -1.22153e-07 0)
(0.0175539 1.413e-07 0)
(0.0175529 4.28588e-07 0)
(0.0175509 7.24351e-07 0)
(0.017548 1.00908e-06 0)
(0.0175443 1.26176e-06 0)
(0.0175398 1.46511e-06 0)
(0.0175348 1.60894e-06 0)
(0.0175295 1.68911e-06 0)
(0.017524 1.70418e-06 0)
(0.0175185 1.65263e-06 0)
(0.0175134 1.53205e-06 0)
(0.0175088 1.33958e-06 0)
(0.017505 1.07272e-06 0)
(0.0175021 7.30747e-07 0)
(0.0175005 3.17172e-07 0)
(0.0175002 -1.56636e-07 0)
(0.0175016 -6.68748e-07 0)
(0.0175045 -1.18544e-06 0)
(0.017509 -1.66432e-06 0)
(0.0175148 -2.06031e-06 0)
(0.0175216 -2.33318e-06 0)
(0.0175291 -2.4549e-06 0)
(0.0175367 -2.41481e-06 0)
(0.0175439 -2.22159e-06 0)
(0.0175504 -1.90161e-06 0)
(0.0175558 -1.49424e-06 0)
(0.01756 -1.04522e-06 0)
(0.0175627 -5.9945e-07 0)
(0.0175642 -1.94961e-07 0)
(0.0175645 1.41168e-07 0)
(0.0175639 3.94582e-07 0)
(0.0175626 5.62055e-07 0)
(0.0175608 6.49798e-07 0)
(0.0175588 6.70651e-07 0)
(0.0175568 6.41736e-07 0)
(0.0175549 5.8281e-07 0)
(0.017553 5.1503e-07 0)
(0.0175514 4.59643e-07 0)
(0.0175498 4.361e-07 0)
(0.0175481 4.59438e-07 0)
(0.0175463 5.37173e-07 0)
(0.0175442 6.66407e-07 0)
(0.0175417 8.32092e-07 0)
(0.0175388 1.00729e-06 0)
(0.0175354 1.156e-06 0)
(0.0175317 1.23843e-06 0)
(0.017528 1.21806e-06 0)
(0.0175246 1.06912e-06 0)
(0.017522 7.82799e-07 0)
(0.0175205 3.70693e-07 0)
(0.0175203 -1.35573e-07 0)
(0.0175218 -6.88802e-07 0)
(0.017525 -1.23329e-06 0)
(0.0175297 -1.71405e-06 0)
(0.0175357 -2.08546e-06 0)
(0.0175426 -2.31772e-06 0)
(0.01755 -2.39971e-06 0)
(0.0175574 -2.33775e-06 0)
(0.0175645 -2.15107e-06 0)
(0.0175708 -1.86571e-06 0)
(0.0175761 -1.50894e-06 0)
(0.0175803 -1.10567e-06 0)
(0.0175831 -6.77255e-07 0)
(0.0175845 -2.42045e-07 0)
(0.0175846 1.83367e-07 0)
(0.0175834 5.83156e-07 0)
(0.017581 9.41542e-07 0)
(0.0175776 1.24279e-06 0)
(0.0175733 1.47202e-06 0)
(0.0175684 1.61724e-06 0)
(0.0175631 1.67224e-06 0)
(0.0175578 1.63871e-06 0)
(0.0175527 1.52604e-06 0)
(0.0175481 1.34891e-06 0)
(0.017544 1.12474e-06 0)
(0.0175407 8.7277e-07 0)
(0.0175382 6.13395e-07 0)
(0.0175364 3.65547e-07 0)
(0.0175354 1.42698e-07 0)
(0.017535 -4.86195e-08 0)
(0.0175352 -2.06236e-07 0)
(0.0175359 -3.29645e-07 0)
(0.017537 -4.18688e-07 0)
(0.0175383 -4.74514e-07 0)
(0.0175397 -5.00133e-07 0)
(0.0175413 -5.0046e-07 0)
(0.0175428 -4.81684e-07 0)
(0.0175443 -4.49206e-07 0)
(0.0175457 -4.05178e-07 0)
(0.017547 -3.49227e-07 0)
(0.0175482 -2.84206e-07 0)
(0.0175492 -2.22076e-07 0)
(0.0175502 -1.82106e-07 0)
(0.0175511 -1.82645e-07 0)
(0.0175522 -2.37803e-07 0)
(0.0175537 -3.65875e-07 0)
(0.0175558 -6.01138e-07 0)
(0.0175591 -9.92026e-07 0)
(0.0175639 -1.5837e-06 0)
(0.0175711 -2.40558e-06 0)
(0.0175812 -3.47277e-06 0)
(0.0175949 -4.78393e-06 0)
(0.017613 -6.30739e-06 0)
(0.0176358 -7.97701e-06 0)
(0.0176637 -9.73355e-06 0)
(0.0176965 -1.16071e-05 0)
(0.0177339 -1.38533e-05 0)
(0.0177776 -1.73915e-05 0)
(0.0178356 -2.42363e-05 0)
(0.0179065 -3.44234e-05 0)
(0.0452872 -0.000126578 0)
(0.045397 -0.000106777 0)
(0.0455098 -9.28471e-05 0)
(0.0456102 -8.3777e-05 0)
(0.0457037 -7.58839e-05 0)
(0.0457902 -6.76463e-05 0)
(0.0458672 -5.87057e-05 0)
(0.0459335 -4.92996e-05 0)
(0.0459886 -3.99521e-05 0)
(0.0460329 -3.11769e-05 0)
(0.0460673 -2.33681e-05 0)
(0.0460929 -1.67613e-05 0)
(0.0461113 -1.14225e-05 0)
(0.0461239 -7.30986e-06 0)
(0.046132 -4.26655e-06 0)
(0.0461368 -2.13639e-06 0)
(0.0461394 -7.38735e-07 0)
(0.0461404 9.65376e-08 0)
(0.0461407 5.13806e-07 0)
(0.0461405 6.29393e-07 0)
(0.0461402 5.34527e-07 0)
(0.0461401 2.92916e-07 0)
(0.0461403 -5.15386e-08 0)
(0.0461411 -4.61771e-07 0)
(0.0461423 -9.1287e-07 0)
(0.0461442 -1.3932e-06 0)
(0.0461467 -1.88943e-06 0)
(0.0461498 -2.38256e-06 0)
(0.0461535 -2.85984e-06 0)
(0.0461579 -3.31631e-06 0)
(0.0461628 -3.73992e-06 0)
(0.0461682 -4.10325e-06 0)
(0.0461739 -4.37205e-06 0)
(0.0461799 -4.51295e-06 0)
(0.0461859 -4.48704e-06 0)
(0.0461916 -4.24268e-06 0)
(0.0461968 -3.72581e-06 0)
(0.0462011 -2.90233e-06 0)
(0.046204 -1.772e-06 0)
(0.0462052 -3.66524e-07 0)
(0.0462044 1.25727e-06 0)
(0.0462014 3.01972e-06 0)
(0.046196 4.81798e-06 0)
(0.0461883 6.53418e-06 0)
(0.0461785 8.05275e-06 0)
(0.0461668 9.27861e-06 0)
(0.0461537 1.01462e-05 0)
(0.0461398 1.06168e-05 0)
(0.0461254 1.06693e-05 0)
(0.0461113 1.02912e-05 0)
(0.046098 9.47326e-06 0)
(0.0460861 8.20722e-06 0)
(0.0460762 6.48919e-06 0)
(0.0460689 4.3286e-06 0)
(0.0460647 1.76359e-06 0)
(0.0460641 -1.12187e-06 0)
(0.0460675 -4.18666e-06 0)
(0.0460748 -7.23335e-06 0)
(0.0460859 -1.00258e-05 0)
(0.0461004 -1.23202e-05 0)
(0.0461174 -1.39029e-05 0)
(0.0461358 -1.46268e-05 0)
(0.0461547 -1.44372e-05 0)
(0.0461728 -1.3382e-05 0)
(0.0461891 -1.16033e-05 0)
(0.0462029 -9.31363e-06 0)
(0.0462135 -6.7613e-06 0)
(0.0462209 -4.19268e-06 0)
(0.0462251 -1.81976e-06 0)
(0.0462264 2.01881e-07 0)
(0.0462254 1.78252e-06 0)
(0.0462226 2.89488e-06 0)
(0.0462186 3.56455e-06 0)
(0.0462139 3.85648e-06 0)
(0.0462089 3.86229e-06 0)
(0.0462039 3.68988e-06 0)
(0.0461991 3.45455e-06 0)
(0.0461946 3.27004e-06 0)
(0.0461901 3.23739e-06 0)
(0.0461854 3.43088e-06 0)
(0.0461803 3.88259e-06 0)
(0.0461745 4.56867e-06 0)
(0.0461678 5.40192e-06 0)
(0.04616 6.23509e-06 0)
(0.0461515 6.87707e-06 0)
(0.0461425 7.12155e-06 0)
(0.0461336 6.78389e-06 0)
(0.0461258 5.7394e-06 0)
(0.0461199 3.95448e-06 0)
(0.0461167 1.50299e-06 0)
(0.046117 -1.43715e-06 0)
(0.0461213 -4.6075e-06 0)
(0.0461295 -7.70809e-06 0)
(0.0461414 -1.04439e-05 0)
(0.0461565 -1.25687e-05 0)
(0.0461737 -1.39168e-05 0)
(0.0461921 -1.44172e-05 0)
(0.0462107 -1.40893e-05 0)
(0.0462283 -1.30235e-05 0)
(0.0462441 -1.13535e-05 0)
(0.0462575 -9.23001e-06 0)
(0.0462679 -6.80033e-06 0)
(0.0462751 -4.19821e-06 0)
(0.0462788 -1.54243e-06 0)
(0.0462791 1.05925e-06 0)
(0.0462761 3.50516e-06 0)
(0.04627 5.69692e-06 0)
(0.0462613 7.54081e-06 0)
(0.0462505 8.95349e-06 0)
(0.0462381 9.87138e-06 0)
(0.0462248 1.02617e-05 0)
(0.0462113 1.01312e-05 0)
(0.0461983 9.52863e-06 0)
(0.0461863 8.53676e-06 0)
(0.0461756 7.25914e-06 0)
(0.0461668 5.80634e-06 0)
(0.0461599 4.28654e-06 0)
(0.0461549 2.79785e-06 0)
(0.0461518 1.41948e-06 0)
(0.0461504 2.05275e-07 0)
(0.0461504 -8.15516e-07 0)
(0.0461518 -1.63232e-06 0)
(0.0461541 -2.24687e-06 0)
(0.0461571 -2.66957e-06 0)
(0.0461606 -2.91712e-06 0)
(0.0461644 -3.01173e-06 0)
(0.0461683 -2.98134e-06 0)
(0.0461721 -2.85721e-06 0)
(0.0461758 -2.66866e-06 0)
(0.0461793 -2.4425e-06 0)
(0.0461825 -2.21342e-06 0)
(0.0461855 -2.03806e-06 0)
(0.0461886 -1.99815e-06 0)
(0.0461918 -2.19657e-06 0)
(0.0461955 -2.76176e-06 0)
(0.0462004 -3.85499e-06 0)
(0.0462072 -5.66627e-06 0)
(0.0462168 -8.40252e-06 0)
(0.0462306 -1.22664e-05 0)
(0.0462499 -1.74155e-05 0)
(0.0462763 -2.39136e-05 0)
(0.0463114 -3.16901e-05 0)
(0.0463564 -4.05094e-05 0)
(0.0464122 -4.99725e-05 0)
(0.0464793 -5.96177e-05 0)
(0.0465571 -6.91192e-05 0)
(0.0466437 -7.85683e-05 0)
(0.046739 -8.90531e-05 0)
(0.0468484 -0.000103777 0)
(0.0469572 -0.000123834 0)
(0.0680713 -0.000230629 0)
(0.068168 -0.000216345 0)
(0.0682766 -0.000206829 0)
(0.0683808 -0.000195966 0)
(0.068482 -0.000181636 0)
(0.0685775 -0.000163925 0)
(0.0686636 -0.000143506 0)
(0.0687386 -0.000121529 0)
(0.0688016 -9.94283e-05 0)
(0.0688529 -7.85223e-05 0)
(0.0688933 -5.9748e-05 0)
(0.068924 -4.37159e-05 0)
(0.0689465 -3.06134e-05 0)
(0.0689624 -2.03508e-05 0)
(0.0689731 -1.26512e-05 0)
(0.0689799 -7.14376e-06 0)
(0.068984 -3.42735e-06 0)
(0.0689863 -1.1122e-06 0)
(0.0689874 1.32177e-07 0)
(0.068988 5.76022e-07 0)
(0.0689885 4.43459e-07 0)
(0.0689892 -9.53288e-08 0)
(0.0689903 -9.20143e-07 0)
(0.068992 -1.94165e-06 0)
(0.0689944 -3.09155e-06 0)
(0.0689976 -4.319e-06 0)
(0.0690016 -5.58202e-06 0)
(0.0690065 -6.84375e-06 0)
(0.0690122 -8.0734e-06 0)
(0.0690187 -9.23836e-06 0)
(0.0690259 -1.02908e-05 0)
(0.0690338 -1.11631e-05 0)
(0.0690421 -1.17732e-05 0)
(0.0690506 -1.20269e-05 0)
(0.069059 -1.1815e-05 0)
(0.069067 -1.10181e-05 0)
(0.0690741 -9.52675e-06 0)
(0.0690799 -7.27127e-06 0)
(0.0690837 -4.24528e-06 0)
(0.0690852 -5.16736e-07 0)
(0.0690839 3.77052e-06 0)
(0.0690794 8.40219e-06 0)
(0.0690716 1.31098e-05 0)
(0.0690606 1.75989e-05 0)
(0.0690466 2.15847e-05 0)
(0.0690301 2.48242e-05 0)
(0.0690115 2.7135e-05 0)
(0.0689916 2.83967e-05 0)
(0.0689711 2.8539e-05 0)
(0.0689509 2.75234e-05 0)
(0.0689318 2.53264e-05 0)
(0.0689146 2.19327e-05 0)
(0.0689002 1.73442e-05 0)
(0.0688895 1.16045e-05 0)
(0.0688831 4.8367e-06 0)
(0.0688817 -2.71991e-06 0)
(0.0688857 -1.06887e-05 0)
(0.0688952 -1.85639e-05 0)
(0.0689099 -2.57536e-05 0)
(0.0689292 -3.16537e-05 0)
(0.068952 -3.57381e-05 0)
(0.0689768 -3.76452e-05 0)
(0.0690023 -3.72418e-05 0)
(0.0690267 -3.46469e-05 0)
(0.0690489 -3.02124e-05 0)
(0.0690676 -2.44645e-05 0)
(0.0690822 -1.80187e-05 0)
(0.0690925 -1.14894e-05 0)
(0.0690985 -5.40934e-06 0)
(0.0691006 -1.75348e-07 0)
(0.0690995 3.9761e-06 0)
(0.0690959 6.96542e-06 0)
(0.0690907 8.84733e-06 0)
(0.0690845 9.77923e-06 0)
(0.0690778 9.98897e-06 0)
(0.069071 9.74627e-06 0)
(0.0690644 9.33748e-06 0)
(0.0690579 9.04037e-06 0)
(0.0690514 9.09548e-06 0)
(0.0690447 9.67254e-06 0)
(0.0690373 1.0835e-05 0)
(0.069029 1.25101e-05 0)
(0.0690195 1.44741e-05 0)
(0.0690088 1.63637e-05 0)
(0.0689971 1.7716e-05 0)
(0.068985 1.80393e-05 0)
(0.0689734 1.69004e-05 0)
(0.0689632 1.40155e-05 0)
(0.0689557 9.32179e-06 0)
(0.068952 3.01518e-06 0)
(0.068953 -4.46003e-06 0)
(0.0689591 -1.24677e-05 0)
(0.0689705 -2.02736e-05 0)
(0.0689869 -2.71556e-05 0)
(0.0690073 -3.25077e-05 0)
(0.0690306 -3.59157e-05 0)
(0.0690554 -3.71926e-05 0)
(0.0690803 -3.63711e-05 0)
(0.069104 -3.36606e-05 0)
(0.0691253 -2.93854e-05 0)
(0.0691433 -2.3921e-05 0)
(0.0691573 -1.76432e-05 0)
(0.0691669 -1.08993e-05 0)
(0.0691717 -4.00172e-06 0)
(0.069172 2.76509e-06 0)
(0.0691677 9.13229e-06 0)
(0.0691594 1.48412e-05 0)
(0.0691474 1.96493e-05 0)
(0.0691325 2.33466e-05 0)
(0.0691155 2.57789e-05 0)
(0.0690973 2.6869e-05 0)
(0.0690787 2.66319e-05 0)
(0.0690607 2.51797e-05 0)
(0.0690439 2.27114e-05 0)
(0.069029 1.94866e-05 0)
(0.0690164 1.57898e-05 0)
(0.0690064 1.18968e-05 0)
(0.068999 8.05093e-06 0)
(0.0689942 4.4504e-06 0)
(0.0689918 1.23992e-06 0)
(0.0689914 -1.49112e-06 0)
(0.0689927 -3.70325e-06 0)
(0.0689954 -5.39648e-06 0)
(0.0689992 -6.59807e-06 0)
(0.0690037 -7.35143e-06 0)
(0.0690087 -7.71032e-06 0)
(0.0690138 -7.74025e-06 0)
(0.069019 -7.52053e-06 0)
(0.069024 -7.13913e-06 0)
(0.0690288 -6.68566e-06 0)
(0.0690334 -6.25953e-06 0)
(0.0690379 -5.99711e-06 0)
(0.0690423 -6.09387e-06 0)
(0.0690471 -6.80477e-06 0)
(0.0690525 -8.44387e-06 0)
(0.0690594 -1.13975e-05 0)
(0.0690685 -1.61206e-05 0)
(0.069081 -2.30912e-05 0)
(0.0690982 -3.27421e-05 0)
(0.0691216 -4.53899e-05 0)
(0.069153 -6.11494e-05 0)
(0.069194 -7.98166e-05 0)
(0.0692458 -0.000100769 0)
(0.0693094 -0.000122969 0)
(0.0693848 -0.000145097 0)
(0.069471 -0.000165806 0)
(0.0695651 -0.000183987 0)
(0.0696644 -0.00019875 0)
(0.0697704 -0.000211176 0)
(0.0698678 -0.000226514 0)
(0.0861275 -0.000303173 0)
(0.0861751 -0.000298402 0)
(0.0862346 -0.000298463 0)
(0.086297 -0.000290573 0)
(0.0863604 -0.000273513 0)
(0.086422 -0.000249238 0)
(0.0864787 -0.000219734 0)
(0.0865289 -0.000187288 0)
(0.0865719 -0.000154269 0)
(0.0866075 -0.000122799 0)
(0.0866362 -9.43845e-05 0)
(0.0866585 -6.99221e-05 0)
(0.0866755 -4.97846e-05 0)
(0.0866879 -3.38603e-05 0)
(0.0866968 -2.17929e-05 0)
(0.0867029 -1.30604e-05 0)
(0.086707 -7.07391e-06 0)
(0.0867097 -3.28204e-06 0)
(0.0867117 -1.20316e-06 0)
(0.0867132 -4.2365e-07 0)
(0.0867147 -6.02702e-07 0)
(0.0867164 -1.47825e-06 0)
(0.0867185 -2.85233e-06 0)
(0.0867213 -4.57435e-06 0)
(0.0867248 -6.5295e-06 0)
(0.0867292 -8.62783e-06 0)
(0.0867344 -1.07944e-05 0)
(0.0867405 -1.29637e-05 0)
(0.0867475 -1.5073e-05 0)
(0.0867552 -1.70506e-05 0)
(0.0867637 -1.88054e-05 0)
(0.0867728 -2.02229e-05 0)
(0.0867823 -2.11638e-05 0)
(0.086792 -2.14618e-05 0)
(0.0868015 -2.09265e-05 0)
(0.0868104 -1.93613e-05 0)
(0.0868183 -1.65945e-05 0)
(0.0868246 -1.25166e-05 0)
(0.0868287 -7.11548e-06 0)
(0.0868302 -5.01986e-07 0)
(0.0868286 7.07913e-06 0)
(0.0868235 1.52586e-05 0)
(0.0868147 2.35749e-05 0)
(0.0868023 3.15242e-05 0)
(0.0867865 3.86169e-05 0)
(0.0867678 4.44264e-05 0)
(0.0867467 4.86198e-05 0)
(0.086724 5.09657e-05 0)
(0.0867005 5.13203e-05 0)
(0.0866772 4.9601e-05 0)
(0.086655 4.57602e-05 0)
(0.0866349 3.97738e-05 0)
(0.0866178 3.16573e-05 0)
(0.0866046 2.1508e-05 0)
(0.0865964 9.56592e-06 0)
(0.0865936 -3.72902e-06 0)
(0.0865968 -1.77069e-05 0)
(0.086606 -3.14862e-05 0)
(0.086621 -4.40479e-05 0)
(0.086641 -5.43601e-05 0)
(0.0866649 -6.15281e-05 0)
(0.0866911 -6.49391e-05 0)
(0.0867181 -6.43674e-05 0)
(0.086744 -6.00156e-05 0)
(0.0867676 -5.24823e-05 0)
(0.0867876 -4.26631e-05 0)
(0.0868032 -3.16093e-05 0)
(0.0868141 -2.03735e-05 0)
(0.0868205 -9.87396e-06 0)
(0.0868227 -7.99514e-07 0)
(0.0868215 6.43468e-06 0)
(0.0868178 1.16854e-05 0)
(0.0868122 1.50439e-05 0)
(0.0868056 1.67819e-05 0)
(0.0867985 1.72941e-05 0)
(0.0867913 1.70452e-05 0)
(0.0867842 1.65222e-05 0)
(0.0867772 1.61897e-05 0)
(0.0867701 1.64399e-05 0)
(0.0867626 1.75386e-05 0)
(0.0867544 1.95696e-05 0)
(0.0867452 2.23902e-05 0)
(0.0867347 2.56111e-05 0)
(0.0867231 2.86186e-05 0)
(0.0867106 3.06441e-05 0)
(0.0866977 3.08799e-05 0)
(0.0866856 2.86236e-05 0)
(0.0866751 2.3425e-05 0)
(0.0866675 1.52029e-05 0)
(0.086664 4.3035e-06 0)
(0.0866655 -8.51728e-06 0)
(0.0866724 -2.21885e-05 0)
(0.0866848 -3.54783e-05 0)
(0.0867024 -4.71757e-05 0)
(0.0867241 -5.62617e-05 0)
(0.0867488 -6.20361e-05 0)
(0.086775 -6.41772e-05 0)
(0.0868012 -6.27306e-05 0)
(0.0868261 -5.80412e-05 0)
(0.0868485 -5.06521e-05 0)
(0.0868672 -4.11995e-05 0)
(0.0868817 -3.03283e-05 0)
(0.0868915 -1.86411e-05 0)
(0.0868963 -6.68236e-06 0)
(0.0868962 5.05164e-06 0)
(0.0868914 1.60954e-05 0)
(0.0868821 2.60043e-05 0)
(0.0868691 3.43625e-05 0)
(0.0868529 4.08117e-05 0)
(0.0868344 4.5089e-05 0)
(0.0868146 4.70637e-05 0)
(0.0867944 4.67609e-05 0)
(0.0867747 4.4365e-05 0)
(0.0867563 4.02037e-05 0)
(0.0867398 3.47098e-05 0)
(0.0867258 2.83668e-05 0)
(0.0867144 2.16507e-05 0)
(0.0867059 1.4983e-05 0)
(0.0867002 8.70557e-06 0)
(0.0866969 3.07105e-06 0)
(0.0866959 -1.75755e-06 0)
(0.0866968 -5.70043e-06 0)
(0.0866993 -8.74796e-06 0)
(0.0867029 -1.09433e-05 0)
(0.0867073 -1.23645e-05 0)
(0.0867123 -1.31104e-05 0)
(0.0867176 -1.32946e-05 0)
(0.0867229 -1.30454e-05 0)
(0.0867282 -1.25077e-05 0)
(0.0867333 -1.18439e-05 0)
(0.0867382 -1.12386e-05 0)
(0.086743 -1.09167e-05 0)
(0.0867477 -1.11729e-05 0)
(0.0867526 -1.23935e-05 0)
(0.086758 -1.50652e-05 0)
(0.0867643 -1.97752e-05 0)
(0.0867721 -2.71927e-05 0)
(0.0867821 -3.8015e-05 0)
(0.0867952 -5.28769e-05 0)
(0.0868125 -7.22275e-05 0)
(0.0868348 -9.61868e-05 0)
(0.0868633 -0.000124385 0)
(0.0868988 -0.00015582 0)
(0.0869415 -0.000188819 0)
(0.0869914 -0.000221126 0)
(0.0870473 -0.0002502 0)
(0.0871069 -0.000273434 0)
(0.0871672 -0.000287827 0)
(0.0872267 -0.000292848 0)
(0.0872766 -0.000299381 0)
(0.0998977 -0.000316096 0)
(0.0998752 -0.000318591 0)
(0.0998595 -0.000326823 0)
(0.0998516 -0.000323787 0)
(0.0998469 -0.000308276 0)
(0.0998446 -0.000283196 0)
(0.0998442 -0.000251258 0)
(0.0998451 -0.000215419 0)
(0.0998471 -0.000178585 0)
(0.0998497 -0.000143195 0)
(0.0998527 -0.000111056 0)
(0.0998561 -8.32079e-05 0)
(0.0998594 -6.0108e-05 0)
(0.0998626 -4.17178e-05 0)
(0.0998656 -2.7658e-05 0)
(0.0998683 -1.7382e-05 0)
(0.0998708 -1.02795e-05 0)
(0.099873 -5.75796e-06 0)
(0.0998752 -3.28576e-06 0)
(0.0998774 -2.40236e-06 0)
(0.0998797 -2.72806e-06 0)
(0.0998824 -3.96181e-06 0)
(0.0998855 -5.86588e-06 0)
(0.0998891 -8.24957e-06 0)
(0.0998934 -1.09608e-05 0)
(0.0998985 -1.38782e-05 0)
(0.0999042 -1.68979e-05 0)
(0.0999107 -1.99216e-05 0)
(0.099918 -2.2848e-05 0)
(0.099926 -2.55643e-05 0)
(0.0999345 -2.79384e-05 0)
(0.0999435 -2.98105e-05 0)
(0.0999529 -3.0985e-05 0)
(0.0999622 -3.12277e-05 0)
(0.0999713 -3.02739e-05 0)
(0.0999798 -2.78548e-05 0)
(0.0999873 -2.37371e-05 0)
(0.0999932 -1.77713e-05 0)
(0.0999971 -9.93916e-06 0)
(0.0999985 -3.91914e-07 0)
(0.0999969 1.05327e-05 0)
(0.0999921 2.23226e-05 0)
(0.0999837 3.43352e-05 0)
(0.0999719 4.58645e-05 0)
(0.0999568 5.62162e-05 0)
(0.0999388 6.47745e-05 0)
(0.0999184 7.1046e-05 0)
(0.0998962 7.4674e-05 0)
(0.0998732 7.5425e-05 0)
(0.0998501 7.31564e-05 0)
(0.0998278 6.77844e-05 0)
(0.0998074 5.92716e-05 0)
(0.0997897 4.76501e-05 0)
(0.0997757 3.30798e-05 0)
(0.0997661 1.59294e-05 0)
(0.0997618 -3.14895e-06 0)
(0.099763 -2.31842e-05 0)
(0.0997699 -4.29154e-05 0)
(0.0997822 -6.08987e-05 0)
(0.0997993 -7.56793e-05 0)
(0.0998199 -8.6e-05 0)
(0.0998429 -9.10013e-05 0)
(0.0998666 -9.03667e-05 0)
(0.0998896 -8.43801e-05 0)
(0.0999104 -7.38819e-05 0)
(0.0999279 -6.0132e-05 0)
(0.0999416 -4.46125e-05 0)
(0.099951 -2.88118e-05 0)
(0.0999563 -1.40323e-05 0)
(0.099958 -1.25367e-06 0)
(0.0999567 8.93331e-06 0)
(0.0999531 1.63271e-05 0)
(0.099948 2.1064e-05 0)
(0.099942 2.354e-05 0)
(0.0999357 2.43248e-05 0)
(0.0999294 2.40809e-05 0)
(0.0999231 2.34921e-05 0)
(0.0999169 2.31964e-05 0)
(0.0999105 2.3718e-05 0)
(0.0999037 2.53953e-05 0)
(0.0998962 2.83113e-05 0)
(0.0998878 3.22388e-05 0)
(0.0998782 3.6621e-05 0)
(0.0998677 4.06058e-05 0)
(0.0998564 4.31429e-05 0)
(0.099845 4.31415e-05 0)
(0.0998344 3.96641e-05 0)
(0.0998253 3.21229e-05 0)
(0.0998189 2.04359e-05 0)
(0.0998162 5.1022e-06 0)
(0.0998179 -1.28235e-05 0)
(0.0998243 -3.18607e-05 0)
(0.0998356 -5.03129e-05 0)
(0.0998513 -6.65141e-05 0)
(0.0998705 -7.9062e-05 0)
(0.0998922 -8.69915e-05 0)
(0.0999152 -8.98575e-05 0)
(0.0999381 -8.77218e-05 0)
(0.0999597 -8.1061e-05 0)
(0.0999789 -7.06283e-05 0)
(0.0999949 -5.73096e-05 0)
(0.100007 -4.20062e-05 0)
(0.100015 -2.55637e-05 0)
(0.100019 -8.74802e-06 0)
(0.100018 7.74441e-06 0)
(0.100013 2.32641e-05 0)
(0.100004 3.71947e-05 0)
(0.0999924 4.89624e-05 0)
(0.0999775 5.80701e-05 0)
(0.0999607 6.41503e-05 0)
(0.0999426 6.70169e-05 0)
(0.0999242 6.66995e-05 0)
(0.0999061 6.3449e-05 0)
(0.0998891 5.77115e-05 0)
(0.0998738 5.00773e-05 0)
(0.0998607 4.1211e-05 0)
(0.09985 3.17767e-05 0)
(0.0998417 2.23716e-05 0)
(0.0998359 1.34839e-05 0)
(0.0998324 5.47548e-06 0)
(0.099831 -1.41888e-06 0)
(0.0998312 -7.08038e-06 0)
(0.0998329 -1.14873e-05 0)
(0.0998356 -1.46929e-05 0)
(0.0998391 -1.68056e-05 0)
(0.0998431 -1.79727e-05 0)
(0.0998474 -1.83634e-05 0)
(0.0998519 -1.81568e-05 0)
(0.0998563 -1.75412e-05 0)
(0.0998606 -1.67259e-05 0)
(0.0998648 -1.59535e-05 0)
(0.0998688 -1.55093e-05 0)
(0.0998726 -1.57415e-05 0)
(0.0998762 -1.70935e-05 0)
(0.0998796 -2.01249e-05 0)
(0.0998829 -2.55043e-05 0)
(0.099886 -3.3976e-05 0)
(0.099889 -4.63091e-05 0)
(0.0998918 -6.32113e-05 0)
(0.0998944 -8.51778e-05 0)
(0.0998967 -0.000112304 0)
(0.0998987 -0.000144117 0)
(0.0999002 -0.000179428 0)
(0.0999011 -0.000216231 0)
(0.0999011 -0.000251767 0)
(0.0998998 -0.000282806 0)
(0.0998967 -0.000305862 0)
(0.0998908 -0.000316893 0)
(0.0998782 -0.000314944 0)
(0.0998587 -0.000314484 0)
(0.109638 -0.00026021 0)
(0.109544 -0.000265774 0)
(0.109451 -0.000276857 0)
(0.109367 -0.000277557 0)
(0.109288 -0.000266621 0)
(0.109214 -0.000246674 0)
(0.109149 -0.000220284 0)
(0.109093 -0.000190122 0)
(0.109047 -0.000158802 0)
(0.109011 -0.000128488 0)
(0.108984 -0.000100749 0)
(0.108964 -7.65458e-05 0)
(0.108951 -5.62978e-05 0)
(0.108942 -4.00289e-05 0)
(0.108937 -2.74754e-05 0)
(0.108935 -1.82158e-05 0)
(0.108935 -1.17795e-05 0)
(0.108936 -7.70644e-06 0)
(0.108938 -5.56671e-06 0)
(0.10894 -4.97858e-06 0)
(0.108943 -5.6251e-06 0)
(0.108946 -7.24383e-06 0)
(0.10895 -9.60886e-06 0)
(0.108954 -1.25266e-05 0)
(0.108958 -1.58356e-05 0)
(0.108963 -1.93968e-05 0)
(0.108969 -2.30806e-05 0)
(0.108975 -2.67591e-05 0)
(0.108981 -3.03012e-05 0)
(0.108988 -3.35632e-05 0)
(0.108995 -3.63779e-05 0)
(0.109003 -3.85446e-05 0)
(0.109011 -3.98217e-05 0)
(0.109018 -3.99233e-05 0)
(0.109026 -3.85285e-05 0)
(0.109032 -3.53101e-05 0)
(0.109038 -2.99826e-05 0)
(0.109043 -2.23605e-05 0)
(0.109046 -1.24173e-05 0)
(0.109048 -3.31856e-07 0)
(0.109046 1.34903e-05 0)
(0.109043 2.84294e-05 0)
(0.109036 4.37006e-05 0)
(0.109027 5.8432e-05 0)
(0.109015 7.17545e-05 0)
(0.109 8.28839e-05 0)
(0.108983 9.11779e-05 0)
(0.108965 9.61574e-05 0)
(0.108946 9.7494e-05 0)
(0.108926 9.4976e-05 0)
(0.108907 8.8474e-05 0)
(0.108889 7.7931e-05 0)
(0.108874 6.33917e-05 0)
(0.10886 4.50749e-05 0)
(0.108851 2.34684e-05 0)
(0.108845 -5.84197e-07 0)
(0.108844 -2.5845e-05 0)
(0.108847 -5.07229e-05 0)
(0.108855 -7.34071e-05 0)
(0.108866 -9.2081e-05 0)
(0.10888 -0.000105179 0)
(0.108897 -0.000111631 0)
(0.108913 -0.000111044 0)
(0.10893 -0.000103771 0)
(0.108944 -9.08596e-05 0)
(0.108957 -7.38809e-05 0)
(0.108966 -5.46879e-05 0)
(0.108972 -3.51447e-05 0)
(0.108975 -1.68842e-05 0)
(0.108976 -1.13432e-06 0)
(0.108974 1.137e-05 0)
(0.108971 2.0388e-05 0)
(0.108967 2.61101e-05 0)
(0.108963 2.90558e-05 0)
(0.108958 2.99591e-05 0)
(0.108954 2.96604e-05 0)
(0.108949 2.90101e-05 0)
(0.108945 2.8783e-05 0)
(0.108941 2.95952e-05 0)
(0.108936 3.18225e-05 0)
(0.10893 3.55232e-05 0)
(0.108924 4.03815e-05 0)
(0.108917 4.56927e-05 0)
(0.108909 5.04098e-05 0)
(0.108901 5.32644e-05 0)
(0.108893 5.29539e-05 0)
(0.108885 4.83729e-05 0)
(0.108879 3.88446e-05 0)
(0.108875 2.43033e-05 0)
(0.108873 5.38236e-06 0)
(0.108874 -1.66194e-05 0)
(0.108879 -3.98952e-05 0)
(0.108888 -6.23832e-05 0)
(0.108899 -8.20632e-05 0)
(0.108913 -9.72376e-05 0)
(0.108928 -0.00010674 0)
(0.108944 -0.000110038 0)
(0.10896 -0.000107215 0)
(0.108975 -9.88598e-05 0)
(0.108988 -8.59019e-05 0)
(0.108998 -6.94304e-05 0)
(0.109006 -5.05527e-05 0)
(0.109011 -3.0306e-05 0)
(0.109013 -9.62722e-06 0)
(0.109011 1.06344e-05 0)
(0.109007 2.96905e-05 0)
(0.109 4.67966e-05 0)
(0.108991 6.1261e-05 0)
(0.108979 7.24836e-05 0)
(0.108967 8.00151e-05 0)
(0.108953 8.36206e-05 0)
(0.108939 8.33251e-05 0)
(0.108926 7.94246e-05 0)
(0.108913 7.24553e-05 0)
(0.108901 6.31292e-05 0)
(0.108891 5.22508e-05 0)
(0.108883 4.06301e-05 0)
(0.108876 2.90061e-05 0)
(0.108871 1.79912e-05 0)
(0.108868 8.04241e-06 0)
(0.108867 -5.43078e-07 0)
(0.108866 -7.61538e-06 0)
(0.108867 -1.31454e-05 0)
(0.108868 -1.71957e-05 0)
(0.10887 -1.98975e-05 0)
(0.108873 -2.14346e-05 0)
(0.108875 -2.20227e-05 0)
(0.108878 -2.18862e-05 0)
(0.108881 -2.12461e-05 0)
(0.108884 -2.03291e-05 0)
(0.108886 -1.93839e-05 0)
(0.108888 -1.86902e-05 0)
(0.10889 -1.8574e-05 0)
(0.108892 -1.94353e-05 0)
(0.108892 -2.17704e-05 0)
(0.108891 -2.61666e-05 0)
(0.108888 -3.32718e-05 0)
(0.108882 -4.3749e-05 0)
(0.108872 -5.82086e-05 0)
(0.108857 -7.70775e-05 0)
(0.108835 -0.000100425 0)
(0.108806 -0.000127821 0)
(0.108768 -0.000158202 0)
(0.108721 -0.000189753 0)
(0.108664 -0.000219959 0)
(0.108598 -0.000245828 0)
(0.108526 -0.000264104 0)
(0.108449 -0.000271055 0)
(0.108361 -0.000265916 0)
(0.10827 -0.000262283 0)
(0.115465 -0.000144802 0)
(0.115319 -0.000149186 0)
(0.115168 -0.000157147 0)
(0.115028 -0.000159172 0)
(0.114891 -0.000154397 0)
(0.114762 -0.000144272 0)
(0.114646 -0.000130256 0)
(0.114546 -0.000113886 0)
(0.114463 -9.66045e-05 0)
(0.114396 -7.96615e-05 0)
(0.114344 -6.39423e-05 0)
(0.114306 -5.00019e-05 0)
(0.114278 -3.8133e-05 0)
(0.11426 -2.84082e-05 0)
(0.114248 -2.07492e-05 0)
(0.114242 -1.5006e-05 0)
(0.114239 -1.10058e-05 0)
(0.114239 -8.5609e-06 0)
(0.11424 -7.47978e-06 0)
(0.114242 -7.58659e-06 0)
(0.114244 -8.71987e-06 0)
(0.114247 -1.07181e-05 0)
(0.114251 -1.342e-05 0)
(0.114254 -1.66744e-05 0)
(0.114258 -2.03395e-05 0)
(0.114262 -2.42737e-05 0)
(0.114266 -2.83332e-05 0)
(0.114271 -3.23748e-05 0)
(0.114275 -3.62499e-05 0)
(0.11428 -3.97941e-05 0)
(0.114285 -4.28157e-05 0)
(0.11429 -4.50877e-05 0)
(0.114295 -4.63407e-05 0)
(0.114299 -4.62584e-05 0)
(0.114304 -4.44864e-05 0)
(0.114308 -4.06622e-05 0)
(0.114312 -3.44662e-05 0)
(0.114315 -2.56859e-05 0)
(0.114317 -1.42814e-05 0)
(0.114318 -4.37983e-07 0)
(0.114317 1.54066e-05 0)
(0.114315 3.2573e-05 0)
(0.114311 5.0191e-05 0)
(0.114306 6.72817e-05 0)
(0.114299 8.28565e-05 0)
(0.11429 9.60094e-05 0)
(0.11428 0.000105983 0)
(0.114268 0.000112196 0)
(0.114256 0.000114234 0)
(0.114243 0.000111819 0)
(0.11423 0.000104773 0)
(0.114217 9.30143e-05 0)
(0.114206 7.65916e-05 0)
(0.114196 5.57663e-05 0)
(0.114188 3.11152e-05 0)
(0.114182 3.62346e-06 0)
(0.114179 -2.52772e-05 0)
(0.114178 -5.37592e-05 0)
(0.11418 -7.97528e-05 0)
(0.114184 -0.000101188 0)
(0.11419 -0.000116283 0)
(0.114197 -0.000123824 0)
(0.114204 -0.000123362 0)
(0.114212 -0.000115302 0)
(0.114218 -0.000100836 0)
(0.114223 -8.17572e-05 0)
(0.114227 -6.01819e-05 0)
(0.114229 -3.82399e-05 0)
(0.114229 -1.77971e-05 0)
(0.114229 -2.51305e-07 0)
(0.114227 1.3571e-05 0)
(0.114225 2.34187e-05 0)
(0.114222 2.95414e-05 0)
(0.11422 3.25675e-05 0)
(0.114218 3.33652e-05 0)
(0.114216 3.29102e-05 0)
(0.114214 3.21691e-05 0)
(0.114212 3.19995e-05 0)
(0.114211 3.30595e-05 0)
(0.114208 3.57229e-05 0)
(0.114206 4.00043e-05 0)
(0.114203 4.55077e-05 0)
(0.114199 5.14192e-05 0)
(0.114196 5.65655e-05 0)
(0.114192 5.95484e-05 0)
(0.114188 5.89501e-05 0)
(0.114184 5.35822e-05 0)
(0.114181 4.27352e-05 0)
(0.11418 2.63731e-05 0)
(0.114179 5.22603e-06 0)
(0.11418 -1.92496e-05 0)
(0.114183 -4.50456e-05 0)
(0.114187 -6.98806e-05 0)
(0.114192 -9.15264e-05 0)
(0.114198 -0.000108117 0)
(0.114205 -0.000118379 0)
(0.114212 -0.000121739 0)
(0.114219 -0.000118311 0)
(0.114225 -0.000108768 0)
(0.11423 -9.41544e-05 0)
(0.114233 -7.56925e-05 0)
(0.114235 -5.46168e-05 0)
(0.114236 -3.20773e-05 0)
(0.114236 -9.10572e-06 0)
(0.114234 1.33691e-05 0)
(0.114231 3.44885e-05 0)
(0.114227 5.34427e-05 0)
(0.114222 6.94786e-05 0)
(0.114216 8.19409e-05 0)
(0.114209 9.03349e-05 0)
(0.114202 9.43942e-05 0)
(0.114195 9.41326e-05 0)
(0.114188 8.9862e-05 0)
(0.114181 8.21638e-05 0)
(0.114175 7.18192e-05 0)
(0.11417 5.97157e-05 0)
(0.114165 4.6752e-05 0)
(0.114161 3.37547e-05 0)
(0.114158 2.14161e-05 0)
(0.114156 1.02575e-05 0)
(0.114154 6.19132e-07 0)
(0.114154 -7.32754e-06 0)
(0.114153 -1.3551e-05 0)
(0.114153 -1.81259e-05 0)
(0.114154 -2.12038e-05 0)
(0.114154 -2.29908e-05 0)
(0.114155 -2.37251e-05 0)
(0.114155 -2.36536e-05 0)
(0.114156 -2.30122e-05 0)
(0.114157 -2.20203e-05 0)
(0.114157 -2.08867e-05 0)
(0.114158 -1.98203e-05 0)
(0.114158 -1.9044e-05 0)
(0.114157 -1.88151e-05 0)
(0.114154 -1.94364e-05 0)
(0.114149 -2.12595e-05 0)
(0.11414 -2.46768e-05 0)
(0.114126 -3.00911e-05 0)
(0.114106 -3.78699e-05 0)
(0.114076 -4.82727e-05 0)
(0.114035 -6.13515e-05 0)
(0.113981 -7.68738e-05 0)
(0.113912 -9.42188e-05 0)
(0.113827 -0.000112316 0)
(0.113726 -0.000129657 0)
(0.113611 -0.000144432 0)
(0.113485 -0.000154656 0)
(0.113354 -0.000158073 0)
(0.11321 -0.000154255 0)
(0.113067 -0.000151329 0)
(0.117416 4.89357e-06 0)
(0.117252 4.38737e-06 0)
(0.117079 3.37391e-06 0)
(0.116918 1.85566e-06 0)
(0.11676 -7.02471e-08 0)
(0.11661 -2.25642e-06 0)
(0.116475 -4.47573e-06 0)
(0.116358 -6.56112e-06 0)
(0.11626 -8.33948e-06 0)
(0.116181 -9.67347e-06 0)
(0.11612 -1.0497e-05 0)
(0.116073 -1.08044e-05 0)
(0.11604 -1.06539e-05 0)
(0.116018 -1.01592e-05 0)
(0.116003 -9.48384e-06 0)
(0.115994 -8.81844e-06 0)
(0.11599 -8.35516e-06 0)
(0.115988 -8.26357e-06 0)
(0.115989 -8.67954e-06 0)
(0.11599 -9.69745e-06 0)
(0.115992 -1.13575e-05 0)
(0.115994 -1.36441e-05 0)
(0.115996 -1.65011e-05 0)
(0.115999 -1.9846e-05 0)
(0.116001 -2.35729e-05 0)
(0.116003 -2.75557e-05 0)
(0.116005 -3.16566e-05 0)
(0.116007 -3.57312e-05 0)
(0.116009 -3.96242e-05 0)
(0.116011 -4.31614e-05 0)
(0.116012 -4.61432e-05 0)
(0.116013 -4.8337e-05 0)
(0.116015 -4.94679e-05 0)
(0.116016 -4.92129e-05 0)
(0.116017 -4.72106e-05 0)
(0.116017 -4.30899e-05 0)
(0.116018 -3.652e-05 0)
(0.116019 -2.72731e-05 0)
(0.116019 -1.52916e-05 0)
(0.11602 -7.46428e-07 0)
(0.11602 1.59318e-05 0)
(0.11602 3.40586e-05 0)
(0.11602 5.27442e-05 0)
(0.116019 7.09763e-05 0)
(0.116018 8.77199e-05 0)
(0.116017 0.000102012 0)
(0.116015 0.000113034 0)
(0.116012 0.00012014 0)
(0.116008 0.000122857 0)
(0.116005 0.000120852 0)
(0.116 0.000113907 0)
(0.115995 0.000101914 0)
(0.11599 8.49156e-05 0)
(0.115985 6.31918e-05 0)
(0.115981 3.73619e-05 0)
(0.115976 8.47937e-06 0)
(0.115972 -2.19331e-05 0)
(0.115968 -5.19402e-05 0)
(0.115964 -7.93571e-05 0)
(0.115961 -0.000102003 0)
(0.115958 -0.000118004 0)
(0.115955 -0.000126083 0)
(0.115952 -0.000125772 0)
(0.11595 -0.000117497 0)
(0.115947 -0.000102518 0)