/*--------------------------------*- C++ -*----------------------------------*\
| =========                 |                                                 |
| \\      /  F ield         | OpenFOAM: The Open Source CFD Toolbox           |
|  \\    /   O peration     | Version:  2406                                  |
|   \\  /    A nd           | Website:  www.openfoam.com                      |
|    \\/     M anipulation  |                                                 |
\*---------------------------------------------------------------------------*/
FoamFile
{
    version     2.0;
    format      ascii;
    arch        "LSB;label=32;scalar=64";
    class       volVectorField;
    location    "0.5";
    object      U;
}
// * * * * * * * * * * * * * * * * * * * * * * * * * * * * * * * * * * * * * //

dimensions      [0 1 -1 0 0 0 0];

internalField   nonuniform List<vector> 
2250
(
(0.805752 -1.59331e-07 0)
(0.805752 -1.94816e-07 0)
(0.805752 5.00372e-07 0)
(0.805751 6.8548e-07 0)
(0.805749 8.27159e-07 0)
(0.805747 7.76071e-07 0)
(0.805746 4.88031e-07 0)
(0.805744 5.07287e-07 0)
(0.805742 6.15774e-07 0)
(0.805741 4.53569e-07 0)
(0.805739 1.42453e-07 0)
(0.805738 1.94633e-07 0)
(0.805737 4.40293e-07 0)
(0.805737 4.32233e-07 0)
(0.805736 1.89577e-07 0)
(0.805735 -2.53718e-08 0)
(0.805734 -9.83453e-08 0)
(0.805734 -2.42588e-08 0)
(0.805733 9.12289e-08 0)
(0.805732 1.1211e-07 0)
(0.805732 6.06989e-08 0)
(0.805731 5.41543e-08 0)
(0.80573 1.17171e-07 0)
(0.80573 1.71413e-07 0)
(0.80573 1.52619e-07 0)
(0.80573 5.57224e-08 0)
(0.80573 -5.82601e-08 0)
(0.80573 -1.09816e-07 0)
(0.80573 -8.04578e-08 0)
(0.80573 -5.00434e-08 0)
(0.80573 -8.11478e-08 0)
(0.80573 -1.55138e-07 0)
(0.80573 -1.86346e-07 0)
(0.805731 -1.17123e-07 0)
(0.805731 1.28219e-08 0)
(0.805731 1.03642e-07 0)
(0.805731 1.01109e-07 0)
(0.805731 4.49039e-08 0)
(0.805731 2.77327e-08 0)
(0.805731 7.61058e-08 0)
(0.80573 1.43293e-07 0)
(0.80573 1.50098e-07 0)
(0.80573 8.13098e-08 0)
(0.80573 5.38206e-12 0)
(0.80573 -2.65605e-08 0)
(0.80573 7.89404e-09 0)
(0.80573 4.27645e-08 0)
(0.80573 2.51791e-08 0)
(0.80573 -3.14181e-08 0)
(0.80573 -6.91438e-08 0)
(0.80573 -4.42421e-08 0)
(0.80573 1.86816e-08 0)
(0.80573 5.91254e-08 0)
(0.80573 4.63083e-08 0)
(0.80573 6.95804e-09 0)
(0.80573 -3.57968e-09 0)
(0.80573 3.16008e-08 0)
(0.80573 7.46128e-08 0)
(0.80573 7.23541e-08 0)
(0.80573 1.80845e-08 0)
(0.80573 -4.29705e-08 0)
(0.80573 -6.36611e-08 0)
(0.80573 -4.22605e-08 0)
(0.80573 -1.56369e-08 0)
(0.80573 -2.28883e-08 0)
(0.805731 -5.6034e-08 0)
(0.805731 -6.73796e-08 0)
(0.805731 -2.5048e-08 0)
(0.805731 5.39389e-08 0)
(0.805731 1.12169e-07 0)
(0.805731 1.11648e-07 0)
(0.805731 7.31087e-08 0)
(0.805731 4.87201e-08 0)
(0.80573 6.17173e-08 0)
(0.80573 8.96801e-08 0)
(0.80573 8.32777e-08 0)
(0.80573 2.49339e-08 0)
(0.80573 -4.99874e-08 0)
(0.80573 -8.83463e-08 0)
(0.80573 -7.65685e-08 0)
(0.80573 -5.10684e-08 0)
(0.805731 -5.74787e-08 0)
(0.805731 -1.00776e-07 0)
(0.805731 -1.40847e-07 0)
(0.805731 -1.36833e-07 0)
(0.805731 -9.43685e-08 0)
(0.805731 -6.17387e-08 0)
(0.805732 -7.33506e-08 0)
(0.805732 -1.16087e-07 0)
(0.805732 -1.4204e-07 0)
(0.805732 -1.22341e-07 0)
(0.805732 -7.91879e-08 0)
(0.805733 -6.04525e-08 0)
(0.805733 -8.02352e-08 0)
(0.805733 -1.07379e-07 0)
(0.805733 -9.66239e-08 0)
(0.805733 -4.1415e-08 0)
(0.805734 1.53788e-08 0)
(0.805734 3.06766e-08 0)
(0.805734 5.81771e-09 0)
(0.805734 -1.56077e-08 0)
(0.805734 4.54389e-09 0)
(0.805734 5.25719e-08 0)
(0.805733 7.75915e-08 0)
(0.805733 4.94891e-08 0)
(0.805733 -6.29383e-09 0)
(0.805733 -3.54457e-08 0)
(0.805733 -1.50606e-08 0)
(0.805733 2.83127e-08 0)
(0.805733 4.24477e-08 0)
(0.805733 1.19674e-08 0)
(0.805733 -2.44379e-08 0)
(0.805733 -1.96292e-08 0)
(0.805733 3.24739e-08 0)
(0.805733 8.75813e-08 0)
(0.805732 1.01803e-07 0)
(0.805732 7.86971e-08 0)
(0.805732 5.73089e-08 0)
(0.805732 7.48444e-08 0)
(0.805731 1.21589e-07 0)
(0.805731 1.52108e-07 0)
(0.805731 1.38065e-07 0)
(0.80573 9.60978e-08 0)
(0.80573 7.05183e-08 0)
(0.80573 8.19579e-08 0)
(0.80573 1.16271e-07 0)
(0.805729 1.33402e-07 0)
(0.805729 1.12441e-07 0)
(0.805729 7.43602e-08 0)
(0.805729 5.94341e-08 0)
(0.805728 7.59072e-08 0)
(0.805728 9.43657e-08 0)
(0.805728 8.12774e-08 0)
(0.805728 3.83948e-08 0)
(0.805728 -8.72467e-09 0)
(0.805728 -3.30179e-08 0)
(0.805728 -2.78597e-08 0)
(0.805728 -2.01237e-08 0)
(0.805728 -4.5988e-08 0)
(0.805728 -9.54833e-08 0)
(0.805728 -1.29054e-07 0)
(0.805728 -1.41893e-07 0)
(0.805728 -1.47935e-07 0)
(0.805728 -1.49475e-07 0)
(0.805729 -1.45895e-07 0)
(0.805729 -1.50119e-07 0)
(0.805729 -1.57817e-07 0)
(0.80573 -1.75125e-07 0)
(0.80573 -2.46041e-07 0)
(0.805731 -2.14215e-07 0)
(2.20117 -8.73212e-08 0)
(2.20117 -2.33085e-07 0)
(2.20117 1.60545e-06 0)
(2.20117 3.28932e-06 0)
(2.20116 4.09672e-06 0)
(2.20116 4.27451e-06 0)
(2.20115 3.78264e-06 0)
(2.20115 3.37551e-06 0)
(2.20115 3.34095e-06 0)
(2.20114 3.12951e-06 0)
(2.20114 2.48071e-06 0)
(2.20114 2.18036e-06 0)
(2.20113 2.18981e-06 0)
(2.20113 1.85224e-06 0)
(2.20113 1.22548e-06 0)
(2.20113 7.63078e-07 0)
(2.20113 5.38306e-07 0)
(2.20113 4.82963e-07 0)
(2.20112 5.73994e-07 0)
(2.20112 7.16047e-07 0)
(2.20112 8.24786e-07 0)
(2.20112 9.0572e-07 0)
(2.20112 9.60392e-07 0)
(2.20112 9.572e-07 0)
(2.20112 8.85703e-07 0)
(2.20112 7.12108e-07 0)
(2.20112 4.13699e-07 0)
(2.20112 7.29696e-08 0)
(2.20112 -1.66908e-07 0)
(2.20112 -2.63585e-07 0)
(2.20112 -3.09438e-07 0)
(2.20112 -3.96575e-07 0)
(2.20112 -5.05388e-07 0)
(2.20112 -5.33823e-07 0)
(2.20112 -4.22056e-07 0)
(2.20112 -2.29899e-07 0)
(2.20112 -8.37955e-08 0)
(2.20112 -4.11685e-08 0)
(2.20112 -2.9499e-08 0)
(2.20112 4.57025e-08 0)
(2.20112 1.97056e-07 0)
(2.20112 3.24677e-07 0)
(2.20112 3.25418e-07 0)
(2.20112 2.04641e-07 0)
(2.20112 6.8309e-08 0)
(2.20112 1.81463e-08 0)
(2.20112 4.68396e-08 0)
(2.20112 6.27434e-08 0)
(2.20112 4.91853e-09 0)
(2.20112 -9.11986e-08 0)
(2.20112 -1.27568e-07 0)
(2.20112 -5.7863e-08 0)
(2.20112 6.30134e-08 0)
(2.20112 1.39169e-07 0)
(2.20112 1.33362e-07 0)
(2.20112 9.12402e-08 0)
(2.20112 8.95605e-08 0)
(2.20112 1.41586e-07 0)
(2.20112 1.7644e-07 0)
(2.20112 1.22735e-07 0)
(2.20112 -1.23594e-08 0)
(2.20112 -1.49121e-07 0)
(2.20112 -2.15859e-07 0)
(2.20112 -2.12763e-07 0)
(2.20112 -2.03215e-07 0)
(2.20112 -2.35413e-07 0)
(2.20112 -2.816e-07 0)
(2.20112 -2.70126e-07 0)
(2.20112 -1.63333e-07 0)
(2.20112 -7.79577e-09 0)
(2.20112 1.04679e-07 0)
(2.20112 1.27501e-07 0)
(2.20112 9.44507e-08 0)
(2.20112 7.9813e-08 0)
(2.20112 1.14775e-07 0)
(2.20112 1.47703e-07 0)
(2.20112 1.0989e-07 0)
(2.20112 -6.53441e-09 0)
(2.20112 -1.36539e-07 0)
(2.20112 -2.00528e-07 0)
(2.20112 -1.88157e-07 0)
(2.20112 -1.62336e-07 0)
(2.20112 -1.87919e-07 0)
(2.20112 -2.5927e-07 0)
(2.20112 -3.06046e-07 0)
(2.20112 -2.79142e-07 0)
(2.20112 -2.03777e-07 0)
(2.20112 -1.55392e-07 0)
(2.20112 -1.80557e-07 0)
(2.20112 -2.44667e-07 0)
(2.20112 -2.73293e-07 0)
(2.20112 -2.34094e-07 0)
(2.20112 -1.71199e-07 0)
(2.20112 -1.50858e-07 0)
(2.20112 -1.85264e-07 0)
(2.20112 -2.13969e-07 0)
(2.20112 -1.74471e-07 0)
(2.20112 -7.17949e-08 0)
(2.20112 2.23946e-08 0)
(2.20112 4.60133e-08 0)
(2.20112 1.491e-08 0)
(2.20112 1.59e-09 0)
(2.20112 5.11168e-08 0)
(2.20112 1.26935e-07 0)
(2.20112 1.51163e-07 0)
(2.20112 9.23215e-08 0)
(2.20112 1.83788e-09 0)
(2.20112 -3.85827e-08 0)
(2.20112 -2.15845e-09 0)
(2.20112 5.02444e-08 0)
(2.20112 4.78088e-08 0)
(2.20112 -1.34267e-08 0)
(2.20112 -6.63224e-08 0)
(2.20112 -4.38583e-08 0)
(2.20112 4.64273e-08 0)
(2.20112 1.34325e-07 0)
(2.20112 1.58677e-07 0)
(2.20112 1.28672e-07 0)
(2.20112 1.12773e-07 0)
(2.20112 1.55298e-07 0)
(2.20112 2.30858e-07 0)
(2.20112 2.72236e-07 0)
(2.20112 2.45634e-07 0)
(2.20112 1.87299e-07 0)
(2.20112 1.56153e-07 0)
(2.20112 1.82456e-07 0)
(2.20112 2.3568e-07 0)
(2.20112 2.54355e-07 0)
(2.20112 2.13323e-07 0)
(2.20112 1.56334e-07 0)
(2.20112 1.38651e-07 0)
(2.20112 1.56222e-07 0)
(2.20112 1.61268e-07 0)
(2.20112 1.27172e-07 0)
(2.20112 5.70062e-08 0)
(2.20112 -1.79559e-08 0)
(2.20112 -5.25916e-08 0)
(2.20112 -4.95011e-08 0)
(2.20112 -7.9603e-08 0)
(2.20112 -1.68848e-07 0)
(2.20112 -2.50671e-07 0)
(2.20112 -3.00993e-07 0)
(2.20112 -3.43951e-07 0)
(2.20112 -3.71876e-07 0)
(2.20112 -3.61254e-07 0)
(2.20112 -3.656e-07 0)
(2.20112 -4.12315e-07 0)
(2.20112 -4.78211e-07 0)
(2.20112 -6.68784e-07 0)
(2.20112 -6.06502e-07 0)
(3.38099 3.18047e-07 0)
(3.38098 1.57528e-07 0)
(3.38098 2.55156e-06 0)
(3.38098 6.6157e-06 0)
(3.38098 9.30601e-06 0)
(3.38098 1.00587e-05 0)
(3.38097 9.46411e-06 0)
(3.38096 8.55598e-06 0)
(3.38096 8.04726e-06 0)
(3.38095 7.76531e-06 0)
(3.38095 6.98543e-06 0)
(3.38094 5.85029e-06 0)
(3.38094 4.7665e-06 0)
(3.38094 3.81454e-06 0)
(3.38094 3.09045e-06 0)
(3.38094 2.70035e-06 0)
(3.38093 2.38797e-06 0)
(3.38093 1.94108e-06 0)
(3.38093 1.60325e-06 0)
(3.38093 1.65708e-06 0)
(3.38093 1.97374e-06 0)
(3.38093 2.20963e-06 0)
(3.38093 2.17423e-06 0)
(3.38092 1.93208e-06 0)
(3.38092 1.66844e-06 0)
(3.38092 1.4538e-06 0)
(3.38092 1.14723e-06 0)
(3.38092 6.24664e-07 0)
(3.38092 6.75278e-09 0)
(3.38092 -4.31436e-07 0)
(3.38092 -5.7545e-07 0)
(3.38092 -5.58934e-07 0)
(3.38092 -6.06429e-07 0)
(3.38092 -8.01581e-07 0)
(3.38092 -1.00936e-06 0)
(3.38092 -1.02531e-06 0)
(3.38092 -7.98232e-07 0)
(3.38092 -4.67349e-07 0)
(3.38092 -2.11082e-07 0)
(3.38092 -7.64574e-08 0)
(3.38092 1.52267e-08 0)
(3.38092 1.4719e-07 0)
(3.38092 2.93012e-07 0)
(3.38092 3.44409e-07 0)
(3.38092 2.48496e-07 0)
(3.38092 7.81206e-08 0)
(3.38092 -3.5364e-08 0)
(3.38093 -3.78152e-08 0)
(3.38093 9.02101e-09 0)
(3.38093 1.30828e-08 0)
(3.38093 -3.60865e-08 0)
(3.38093 -5.30423e-08 0)
(3.38093 4.18776e-08 0)
(3.38093 2.27281e-07 0)
(3.38093 3.96279e-07 0)
(3.38093 4.50625e-07 0)
(3.38093 3.95399e-07 0)
(3.38093 3.20676e-07 0)
(3.38093 2.91937e-07 0)
(3.38092 2.79225e-07 0)
(3.38092 1.98863e-07 0)
(3.38092 1.74196e-08 0)
(3.38092 -2.03322e-07 0)
(3.38092 -3.63253e-07 0)
(3.38092 -4.14465e-07 0)
(3.38093 -4.02507e-07 0)
(3.38093 -4.04907e-07 0)
(3.38093 -4.38882e-07 0)
(3.38093 -4.4249e-07 0)
(3.38093 -3.44709e-07 0)
(3.38093 -1.51547e-07 0)
(3.38092 4.27478e-08 0)
(3.38092 1.39286e-07 0)
(3.38092 1.29796e-07 0)
(3.38092 9.11548e-08 0)
(3.38092 9.45683e-08 0)
(3.38092 1.27725e-07 0)
(3.38092 1.14743e-07 0)
(3.38092 2.83934e-09 0)
(3.38092 -1.68583e-07 0)
(3.38092 -2.99407e-07 0)
(3.38092 -3.27635e-07 0)
(3.38092 -2.89883e-07 0)
(3.38092 -2.73309e-07 0)
(3.38092 -3.17707e-07 0)
(3.38092 -3.76449e-07 0)
(3.38092 -3.71181e-07 0)
(3.38092 -2.89231e-07 0)
(3.38092 -2.00298e-07 0)
(3.38092 -1.85744e-07 0)
(3.38092 -2.49432e-07 0)
(3.38092 -3.155e-07 0)
(3.38092 -3.09693e-07 0)
(3.38092 -2.43294e-07 0)
(3.38092 -1.92943e-07 0)
(3.38092 -2.09841e-07 0)
(3.38092 -2.59531e-07 0)
(3.38093 -2.55863e-07 0)
(3.38093 -1.62569e-07 0)
(3.38093 -3.37775e-08 0)
(3.38093 4.01458e-08 0)
(3.38093 3.05642e-08 0)
(3.38093 7.69032e-10 0)
(3.38093 3.00648e-08 0)
(3.38093 1.20696e-07 0)
(3.38092 1.914e-07 0)
(3.38092 1.66186e-07 0)
(3.38092 6.31045e-08 0)
(3.38092 -2.77531e-08 0)
(3.38092 -4.10164e-08 0)
(3.38092 -6.12006e-10 0)
(3.38092 9.20234e-09 0)
(3.38093 -5.26752e-08 0)
(3.38093 -1.41273e-07 0)
(3.38093 -1.65862e-07 0)
(3.38093 -8.89045e-08 0)
(3.38093 3.37472e-08 0)
(3.38093 1.09712e-07 0)
(3.38093 1.06333e-07 0)
(3.38093 7.84653e-08 0)
(3.38093 1.03404e-07 0)
(3.38093 1.91937e-07 0)
(3.38093 2.82843e-07 0)
(3.38093 3.08503e-07 0)
(3.38093 2.64202e-07 0)
(3.38093 2.09477e-07 0)
(3.38093 2.10129e-07 0)
(3.38093 2.66797e-07 0)
(3.38093 3.10031e-07 0)
(3.38093 2.84856e-07 0)
(3.38093 2.20194e-07 0)
(3.38092 1.73277e-07 0)
(3.38092 1.67515e-07 0)
(3.38092 1.90531e-07 0)
(3.38092 2.02112e-07 0)
(3.38092 1.56889e-07 0)
(3.38092 6.72454e-08 0)
(3.38092 -2.43689e-11 0)
(3.38092 -3.43531e-08 0)
(3.38092 -9.07383e-08 0)
(3.38092 -1.64331e-07 0)
(3.38092 -2.30541e-07 0)
(3.38092 -3.01415e-07 0)
(3.38092 -3.82384e-07 0)
(3.38092 -4.09241e-07 0)
(3.38092 -4.04949e-07 0)
(3.38092 -4.63889e-07 0)
(3.38092 -5.16553e-07 0)
(3.38092 -6.50727e-07 0)
(3.38092 -6.34341e-07 0)
(4.34562 -5.01017e-09 0)
(4.34562 3.68871e-07 0)
(4.34562 1.99527e-06 0)
(4.34562 7.42962e-06 0)
(4.34562 1.20444e-05 0)
(4.34562 1.39159e-05 0)
(4.34562 1.39894e-05 0)
(4.34561 1.35067e-05 0)
(4.34561 1.30989e-05 0)
(4.34561 1.23021e-05 0)
(4.34561 1.07201e-05 0)
(4.3456 8.84688e-06 0)
(4.3456 7.35126e-06 0)
(4.3456 6.29596e-06 0)
(4.3456 5.42703e-06 0)
(4.3456 4.71863e-06 0)
(4.34559 4.14057e-06 0)
(4.34559 3.53288e-06 0)
(4.34559 2.94491e-06 0)
(4.34559 2.61441e-06 0)
(4.34559 2.59113e-06 0)
(4.34559 2.67963e-06 0)
(4.34559 2.65064e-06 0)
(4.34559 2.38902e-06 0)
(4.34559 1.95508e-06 0)
(4.34559 1.51997e-06 0)
(4.34559 1.14884e-06 0)
(4.34559 7.36076e-07 0)
(4.34559 2.11524e-07 0)
(4.34559 -3.23689e-07 0)
(4.34559 -6.86606e-07 0)
(4.34559 -8.09499e-07 0)
(4.34559 -8.1338e-07 0)
(4.34559 -8.83719e-07 0)
(4.34559 -1.0751e-06 0)
(4.34559 -1.24809e-06 0)
(4.34559 -1.20887e-06 0)
(4.34559 -9.09814e-07 0)
(4.34559 -4.97752e-07 0)
(4.34559 -1.78006e-07 0)
(4.34559 -4.4676e-08 0)
(4.34559 -2.11159e-08 0)
(4.34559 2.54582e-08 0)
(4.34559 1.2913e-07 0)
(4.34559 2.03215e-07 0)
(4.34559 1.56719e-07 0)
(4.34559 1.46946e-08 0)
(4.34559 -1.04187e-07 0)
(4.34559 -1.14719e-07 0)
(4.34559 -3.42567e-08 0)
(4.34559 5.44755e-08 0)
(4.34559 1.03462e-07 0)
(4.34559 1.50729e-07 0)
(4.34559 2.66018e-07 0)
(4.34559 4.48516e-07 0)
(4.34559 6.12884e-07 0)
(4.34559 6.55208e-07 0)
(4.34559 5.57584e-07 0)
(4.34559 4.04466e-07 0)
(4.34559 2.91156e-07 0)
(4.34559 2.28451e-07 0)
(4.34559 1.46225e-07 0)
(4.34559 -1.77609e-08 0)
(4.34559 -2.39006e-07 0)
(4.34559 -4.19294e-07 0)
(4.34559 -4.82439e-07 0)
(4.34559 -4.45301e-07 0)
(4.34559 -3.8658e-07 0)
(4.34559 -3.598e-07 0)
(4.34559 -3.37763e-07 0)
(4.34559 -2.51043e-07 0)
(4.34559 -7.6735e-08 0)
(4.34559 1.19198e-07 0)
(4.34559 2.3146e-07 0)
(4.34559 2.19445e-07 0)
(4.34559 1.438e-07 0)
(4.34559 9.3417e-08 0)
(4.34559 9.36082e-08 0)
(4.34559 8.65882e-08 0)
(4.34559 -1.8084e-09 0)
(4.34559 -1.66234e-07 0)
(4.34559 -3.16216e-07 0)
(4.34559 -3.68953e-07 0)
(4.34559 -3.28901e-07 0)
(4.34559 -2.78002e-07 0)
(4.34559 -2.84583e-07 0)
(4.34559 -3.33783e-07 0)
(4.34559 -3.5144e-07 0)
(4.34559 -2.93858e-07 0)
(4.34559 -2.06999e-07 0)
(4.34559 -1.77067e-07 0)
(4.34559 -2.37164e-07 0)
(4.34559 -3.27788e-07 0)
(4.34559 -3.6099e-07 0)
(4.34559 -3.14912e-07 0)
(4.34559 -2.53278e-07 0)
(4.34559 -2.45731e-07 0)
(4.34559 -2.8698e-07 0)
(4.34559 -3.0041e-07 0)
(4.34559 -2.24201e-07 0)
(4.34559 -8.75059e-08 0)
(4.34559 1.98595e-08 0)
(4.34559 4.30386e-08 0)
(4.34559 1.8191e-08 0)
(4.34559 2.85212e-08 0)
(4.34559 1.03666e-07 0)
(4.34559 1.82957e-07 0)
(4.34559 1.79994e-07 0)
(4.34559 7.80484e-08 0)
(4.34559 -4.89143e-08 0)
(4.34559 -1.16371e-07 0)
(4.34559 -1.13228e-07 0)
(4.34559 -1.01892e-07 0)
(4.34559 -1.43138e-07 0)
(4.34559 -2.22598e-07 0)
(4.34559 -2.66368e-07 0)
(4.34559 -2.14748e-07 0)
(4.34559 -9.30119e-08 0)
(4.34559 1.26033e-08 0)
(4.34559 4.72342e-08 0)
(4.34559 3.6747e-08 0)
(4.34559 5.30086e-08 0)
(4.34559 1.32707e-07 0)
(4.34559 2.37364e-07 0)
(4.34559 2.96282e-07 0)
(4.34559 2.76117e-07 0)
(4.34559 2.17766e-07 0)
(4.34559 1.97998e-07 0)
(4.34559 2.37004e-07 0)
(4.34559 2.81993e-07 0)
(4.34559 2.84862e-07 0)
(4.34559 2.47338e-07 0)
(4.34559 2.00878e-07 0)
(4.34559 1.87847e-07 0)
(4.34559 2.26428e-07 0)
(4.34559 2.63211e-07 0)
(4.34559 2.22572e-07 0)
(4.34559 1.23859e-07 0)
(4.34559 4.4474e-08 0)
(4.34559 -1.20707e-08 0)
(4.34559 -6.70038e-08 0)
(4.34559 -1.28047e-07 0)
(4.34559 -1.94387e-07 0)
(4.34559 -2.93125e-07 0)
(4.34559 -3.87166e-07 0)
(4.34559 -4.04863e-07 0)
(4.34559 -4.43621e-07 0)
(4.34559 -4.00415e-07 0)
(4.34559 -2.4455e-07 0)
(4.34559 -1.78369e-07 0)
(5.09546 -1.06519e-06 0)
(5.09546 -1.08879e-06 0)
(5.09546 -1.14275e-06 0)
(5.09546 4.22173e-06 0)
(5.09547 9.91235e-06 0)
(5.09547 1.28721e-05 0)
(5.09547 1.44903e-05 0)
(5.09548 1.52162e-05 0)
(5.09548 1.47449e-05 0)
(5.09548 1.32824e-05 0)
(5.09548 1.16298e-05 0)
(5.09548 1.02659e-05 0)
(5.09548 9.22001e-06 0)
(5.09548 8.22089e-06 0)
(5.09548 7.04796e-06 0)
(5.09548 5.91512e-06 0)
(5.09548 5.12141e-06 0)
(5.09547 4.55789e-06 0)
(5.09547 3.9645e-06 0)
(5.09547 3.3447e-06 0)
(5.09547 2.8707e-06 0)
(5.09547 2.63609e-06 0)
(5.09547 2.58524e-06 0)
(5.09547 2.51115e-06 0)
(5.09547 2.19322e-06 0)
(5.09547 1.63059e-06 0)
(5.09547 1.04033e-06 0)
(5.09547 5.93441e-07 0)
(5.09547 2.69519e-07 0)
(5.09547 -5.37895e-08 0)
(5.09547 -4.25806e-07 0)
(5.09547 -7.79579e-07 0)
(5.09547 -1.01609e-06 0)
(5.09547 -1.11607e-06 0)
(5.09547 -1.14958e-06 0)
(5.09547 -1.17702e-06 0)
(5.09547 -1.16962e-06 0)
(5.09547 -1.04606e-06 0)
(5.09547 -7.76622e-07 0)
(5.09547 -4.45554e-07 0)
(5.09547 -1.99492e-07 0)
(5.09547 -1.19254e-07 0)
(5.09547 -1.43371e-07 0)
(5.09547 -1.37539e-07 0)
(5.09547 -4.80834e-08 0)
(5.09547 5.78225e-08 0)
(5.09547 8.33073e-08 0)
(5.09547 1.63236e-08 0)
(5.09547 -5.86005e-08 0)
(5.09547 -4.08186e-08 0)
(5.09547 8.86734e-08 0)
(5.09547 2.55131e-07 0)
(5.09547 3.73233e-07 0)
(5.09548 4.26187e-07 0)
(5.09548 4.62359e-07 0)
(5.09548 5.22376e-07 0)
(5.09548 5.76854e-07 0)
(5.09548 5.53822e-07 0)
(5.09548 4.25107e-07 0)
(5.09548 2.42375e-07 0)
(5.09548 9.20608e-08 0)
(5.09548 1.18325e-08 0)
(5.09548 -4.35591e-08 0)
(5.09548 -1.43955e-07 0)
(5.09548 -2.99648e-07 0)
(5.09548 -4.41262e-07 0)
(5.09548 -4.87413e-07 0)
(5.09548 -4.23587e-07 0)
(5.09548 -3.16281e-07 0)
(5.09548 -2.41848e-07 0)
(5.09548 -2.13256e-07 0)
(5.09548 -1.74197e-07 0)
(5.09548 -7.50605e-08 0)
(5.09548 5.95871e-08 0)
(5.09548 1.45943e-07 0)
(5.09548 1.25991e-07 0)
(5.09548 2.7384e-08 0)
(5.09548 -6.53166e-08 0)
(5.09548 -9.93658e-08 0)
(5.09548 -1.02054e-07 0)
(5.09548 -1.43482e-07 0)
(5.09548 -2.49389e-07 0)
(5.09548 -3.63919e-07 0)
(5.09548 -4.04616e-07 0)
(5.09548 -3.46779e-07 0)
(5.09548 -2.52997e-07 0)
(5.09548 -2.07035e-07 0)
(5.09548 -2.27165e-07 0)
(5.09547 -2.563e-07 0)
(5.09547 -2.33555e-07 0)
(5.09547 -1.68718e-07 0)
(5.09547 -1.32587e-07 0)
(5.09547 -1.75751e-07 0)
(5.09547 -2.67361e-07 0)
(5.09547 -3.24695e-07 0)
(5.09547 -3.01137e-07 0)
(5.09547 -2.33477e-07 0)
(5.09547 -1.9611e-07 0)
(5.09547 -2.12437e-07 0)
(5.09547 -2.30591e-07 0)
(5.09547 -1.81796e-07 0)
(5.09547 -6.24834e-08 0)
(5.09547 5.53331e-08 0)
(5.09547 9.96613e-08 0)
(5.09547 7.44107e-08 0)
(5.09547 4.952e-08 0)
(5.09547 7.64713e-08 0)
(5.09547 1.26889e-07 0)
(5.09547 1.24131e-07 0)
(5.09547 3.03519e-08 0)
(5.09547 -1.09561e-07 0)
(5.09547 -2.09298e-07 0)
(5.09547 -2.27836e-07 0)
(5.09547 -2.00094e-07 0)
(5.09547 -1.95706e-07 0)
(5.09547 -2.37973e-07 0)
(5.09547 -2.78229e-07 0)
(5.09547 -2.51717e-07 0)
(5.09547 -1.52596e-07 0)
(5.09547 -4.03294e-08 0)
(5.09547 1.94671e-08 0)
(5.09547 2.08174e-08 0)
(5.09547 1.59008e-08 0)
(5.09547 5.60941e-08 0)
(5.09547 1.35915e-07 0)
(5.09547 1.95896e-07 0)
(5.09547 1.88665e-07 0)
(5.09548 1.39117e-07 0)
(5.09548 1.13346e-07 0)
(5.09548 1.37324e-07 0)
(5.09548 1.83812e-07 0)
(5.09548 2.16071e-07 0)
(5.09548 2.0729e-07 0)
(5.09548 1.68103e-07 0)
(5.09548 1.55869e-07 0)
(5.09548 1.96416e-07 0)
(5.09548 2.19924e-07 0)
(5.09548 1.69921e-07 0)
(5.09548 9.50903e-08 0)
(5.09548 3.76304e-08 0)
(5.09548 -4.90336e-09 0)
(5.09548 -6.15422e-08 0)
(5.09548 -1.148e-07 0)
(5.09548 -1.77395e-07 0)
(5.09548 -2.81521e-07 0)
(5.09548 -3.38107e-07 0)
(5.09548 -4.02735e-07 0)
(5.09548 -3.52083e-07 0)
(5.09548 4.10425e-08 0)
(5.09548 2.10386e-07 0)
(5.63082 -1.42827e-06 0)
(5.63082 -3.19282e-06 0)
(5.63082 -4.24013e-06 0)
(5.63082 -3.97074e-07 0)
(5.63083 4.7437e-06 0)
(5.63084 7.76947e-06 0)
(5.63084 9.68882e-06 0)
(5.63085 1.09722e-05 0)
(5.63085 1.09838e-05 0)
(5.63086 1.01724e-05 0)
(5.63086 9.60112e-06 0)
(5.63086 9.26917e-06 0)
(5.63086 8.74489e-06 0)
(5.63087 7.94072e-06 0)
(5.63087 6.94868e-06 0)
(5.63087 5.91993e-06 0)
(5.63087 5.05085e-06 0)
(5.63087 4.36776e-06 0)
(5.63087 3.73971e-06 0)
(5.63087 3.12892e-06 0)
(5.63087 2.61395e-06 0)
(5.63087 2.2512e-06 0)
(5.63087 2.06254e-06 0)
(5.63087 1.99883e-06 0)
(5.63087 1.87411e-06 0)
(5.63087 1.51516e-06 0)
(5.63087 9.71462e-07 0)
(5.63087 4.745e-07 0)
(5.63087 1.8512e-07 0)
(5.63087 5.55699e-08 0)
(5.63087 -9.50661e-08 0)
(5.63087 -3.85866e-07 0)
(5.63087 -7.5822e-07 0)
(5.63087 -1.04863e-06 0)
(5.63087 -1.14938e-06 0)
(5.63087 -1.08957e-06 0)
(5.63087 -9.80779e-07 0)
(5.63087 -9.01714e-07 0)
(5.63087 -8.38721e-07 0)
(5.63087 -7.28277e-07 0)
(5.63087 -5.57573e-07 0)
(5.63087 -4.00839e-07 0)
(5.63087 -3.32307e-07 0)
(5.63087 -3.38318e-07 0)
(5.63087 -3.30543e-07 0)
(5.63087 -2.45649e-07 0)
(5.63087 -1.14397e-07 0)
(5.63087 -1.77947e-08 0)
(5.63087 9.16221e-09 0)
(5.63087 1.44249e-08 0)
(5.63087 7.80463e-08 0)
(5.63087 2.26482e-07 0)
(5.63088 3.97643e-07 0)
(5.63088 4.97074e-07 0)
(5.63088 4.87021e-07 0)
(5.63088 4.15094e-07 0)
(5.63088 3.57255e-07 0)
(5.63088 3.36657e-07 0)
(5.63088 3.10062e-07 0)
(5.63088 2.25465e-07 0)
(5.63088 8.99638e-08 0)
(5.63088 -3.18239e-08 0)
(5.63088 -8.69933e-08 0)
(5.63088 -8.90365e-08 0)
(5.63088 -1.05014e-07 0)
(5.63088 -1.7664e-07 0)
(5.63088 -2.72641e-07 0)
(5.63088 -3.21556e-07 0)
(5.63088 -2.84075e-07 0)
(5.63088 -1.97426e-07 0)
(5.63088 -1.38024e-07 0)
(5.63088 -1.4518e-07 0)
(5.63088 -1.82256e-07 0)
(5.63088 -1.82209e-07 0)
(5.63088 -1.27106e-07 0)
(5.63088 -7.04005e-08 0)
(5.63088 -8.22034e-08 0)
(5.63088 -1.73067e-07 0)
(5.63088 -2.79817e-07 0)
(5.63088 -3.30278e-07 0)
(5.63088 -3.16548e-07 0)
(5.63088 -2.96769e-07 0)
(5.63088 -3.2041e-07 0)
(5.63088 -3.71773e-07 0)
(5.63088 -3.85872e-07 0)
(5.63088 -3.18758e-07 0)
(5.63088 -2.04137e-07 0)
(5.63088 -1.22672e-07 0)
(5.63088 -1.1799e-07 0)
(5.63088 -1.54641e-07 0)
(5.63088 -1.63173e-07 0)
(5.63088 -1.19329e-07 0)
(5.63088 -7.12121e-08 0)
(5.63088 -8.13293e-08 0)
(5.63088 -1.51371e-07 0)
(5.63088 -2.16063e-07 0)
(5.63088 -2.12455e-07 0)
(5.63088 -1.48852e-07 0)
(5.63088 -9.1762e-08 0)
(5.63088 -8.86904e-08 0)
(5.63088 -1.15635e-07 0)
(5.63087 -1.05832e-07 0)
(5.63087 -2.87344e-08 0)
(5.63087 7.17808e-08 0)
(5.63087 1.20706e-07 0)
(5.63087 9.18668e-08 0)
(5.63087 3.26283e-08 0)
(5.63087 5.89815e-09 0)
(5.63087 1.90582e-08 0)
(5.63087 1.96624e-08 0)
(5.63087 -4.30196e-08 0)
(5.63087 -1.58019e-07 0)
(5.63087 -2.57663e-07 0)
(5.63087 -2.84164e-07 0)
(5.63087 -2.48397e-07 0)
(5.63087 -2.12153e-07 0)
(5.63087 -2.1911e-07 0)
(5.63087 -2.50458e-07 0)
(5.63087 -2.49943e-07 0)
(5.63087 -1.84945e-07 0)
(5.63087 -8.53129e-08 0)
(5.63087 -1.47585e-08 0)
(5.63087 -5.90986e-09 0)
(5.63087 -3.03751e-08 0)
(5.63088 -3.1453e-08 0)
(5.63088 1.1955e-08 0)
(5.63088 6.18911e-08 0)
(5.63088 7.2673e-08 0)
(5.63088 5.04378e-08 0)
(5.63088 2.83406e-08 0)
(5.63088 2.6411e-08 0)
(5.63088 5.43056e-08 0)
(5.63088 9.54269e-08 0)
(5.63088 1.05503e-07 0)
(5.63088 7.76455e-08 0)
(5.63088 6.48942e-08 0)
(5.63088 7.96928e-08 0)
(5.63088 7.37259e-08 0)
(5.63088 4.47084e-08 0)
(5.63088 1.02637e-08 0)
(5.63088 -1.12876e-08 0)
(5.63088 -4.55151e-08 0)
(5.63088 -8.93174e-08 0)
(5.63088 -1.21791e-07 0)
(5.63088 -1.97328e-07 0)
(5.63088 -2.57503e-07 0)
(5.63088 -3.24301e-07 0)
(5.63088 -3.83801e-07 0)
(5.63088 -1.56327e-07 0)
(5.63088 1.73071e-08 0)
(5.95195 -1.2517e-06 0)
(5.95195 -2.88149e-06 0)
(5.95194 -3.56888e-06 0)
(5.95194 -2.57045e-06 0)
(5.95194 -1.16337e-06 0)
(5.95195 1.87682e-07 0)
(5.95195 1.87819e-06 0)
(5.95196 3.80069e-06 0)
(5.95197 4.89262e-06 0)
(5.95197 5.25146e-06 0)
(5.95198 5.70311e-06 0)
(5.95198 6.06333e-06 0)
(5.95198 5.89057e-06 0)
(5.95199 5.40864e-06 0)
(5.95199 4.96102e-06 0)
(5.95199 4.48504e-06 0)
(5.95199 3.85029e-06 0)
(5.952 3.14349e-06 0)
(5.952 2.52891e-06 0)
(5.952 2.10482e-06 0)
(5.952 1.85708e-06 0)
(5.952 1.65492e-06 0)
(5.952 1.39785e-06 0)
(5.952 1.14925e-06 0)
(5.952 9.93987e-07 0)
(5.95201 8.75145e-07 0)
(5.95201 6.72895e-07 0)
(5.95201 3.70522e-07 0)
(5.95201 7.48835e-08 0)
(5.95201 -1.08578e-07 0)
(5.95201 -1.92995e-07 0)
(5.95201 -2.93342e-07 0)
(5.95201 -4.94093e-07 0)
(5.95201 -7.54485e-07 0)
(5.95201 -9.5028e-07 0)
(5.95201 -9.93641e-07 0)
(5.95201 -9.11744e-07 0)
(5.95201 -8.19812e-07 0)
(5.95201 -8.11924e-07 0)
(5.95201 -8.68223e-07 0)
(5.95201 -8.83573e-07 0)
(5.95201 -7.92983e-07 0)
(5.95201 -6.42315e-07 0)
(5.95201 -5.28541e-07 0)
(5.95201 -4.81922e-07 0)
(5.95201 -4.46084e-07 0)
(5.95201 -3.51897e-07 0)
(5.95201 -1.91792e-07 0)
(5.95201 -2.35143e-08 0)
(5.95201 8.9962e-08 0)
(5.95201 1.43993e-07 0)
(5.95201 1.89891e-07 0)
(5.95201 2.67794e-07 0)
(5.95201 3.55771e-07 0)
(5.95201 3.87992e-07 0)
(5.95201 3.27168e-07 0)
(5.95201 2.13198e-07 0)
(5.95201 1.25951e-07 0)
(5.95201 1.08769e-07 0)
(5.95201 1.32313e-07 0)
(5.95201 1.30831e-07 0)
(5.95201 7.41578e-08 0)
(5.95201 1.13519e-10 0)
(5.95201 -3.15547e-08 0)
(5.95201 -9.36398e-09 0)
(5.95201 1.71153e-08 0)
(5.95201 -1.01701e-08 0)
(5.95201 -9.67762e-08 0)
(5.95201 -1.86359e-07 0)
(5.95201 -2.1922e-07 0)
(5.95201 -1.95841e-07 0)
(5.95201 -1.76103e-07 0)
(5.95201 -2.12666e-07 0)
(5.95201 -2.92814e-07 0)
(5.95201 -3.5234e-07 0)
(5.95201 -3.46228e-07 0)
(5.95201 -2.98196e-07 0)
(5.95201 -2.78389e-07 0)
(5.95201 -3.23515e-07 0)
(5.95201 -3.97779e-07 0)
(5.95201 -4.30804e-07 0)
(5.95201 -3.90392e-07 0)
(5.95201 -3.1416e-07 0)
(5.95201 -2.65427e-07 0)
(5.95201 -2.63592e-07 0)
(5.95201 -2.63623e-07 0)
(5.95201 -2.09737e-07 0)
(5.95201 -1.04755e-07 0)
(5.95201 -1.25673e-08 0)
(5.95201 1.09413e-08 0)
(5.95201 -2.42467e-08 0)
(5.95201 -5.32622e-08 0)
(5.95201 -3.0224e-08 0)
(5.95201 2.16864e-08 0)
(5.95201 3.91331e-08 0)
(5.95201 -7.61697e-09 0)
(5.95201 -7.64868e-08 0)
(5.95201 -9.91481e-08 0)
(5.95201 -5.77082e-08 0)
(5.95201 -1.18548e-09 0)
(5.95201 9.9644e-09 0)
(5.95201 -2.95706e-08 0)
(5.95201 -6.45477e-08 0)
(5.95201 -4.38503e-08 0)
(5.95201 1.95444e-08 0)
(5.95201 6.03621e-08 0)
(5.95201 3.23652e-08 0)
(5.95201 -4.34606e-08 0)
(5.95201 -1.05542e-07 0)
(5.95201 -1.17502e-07 0)
(5.95201 -1.04306e-07 0)
(5.95201 -1.2045e-07 0)
(5.95201 -1.8788e-07 0)
(5.95201 -2.68375e-07 0)
(5.95201 -3.03401e-07 0)
(5.95201 -2.7689e-07 0)
(5.95201 -2.30306e-07 0)
(5.95201 -2.13829e-07 0)
(5.95201 -2.34796e-07 0)
(5.95201 -2.52549e-07 0)
(5.95201 -2.22452e-07 0)
(5.95201 -1.46106e-07 0)
(5.95201 -7.4929e-08 0)
(5.95201 -5.73728e-08 0)
(5.95201 -8.60369e-08 0)
(5.95201 -1.07251e-07 0)
(5.95201 -8.55909e-08 0)
(5.95201 -4.00771e-08 0)
(5.95201 -7.36127e-09 0)
(5.95201 -6.56836e-09 0)
(5.95201 -4.03456e-08 0)
(5.95201 -7.69593e-08 0)
(5.95201 -6.8138e-08 0)
(5.95201 -2.53065e-08 0)
(5.95201 -1.33594e-08 0)
(5.95201 -3.96371e-08 0)
(5.95201 -5.88934e-08 0)
(5.95201 -6.17029e-08 0)
(5.95201 -4.76874e-08 0)
(5.95201 -4.43922e-08 0)
(5.95201 -4.78509e-08 0)
(5.95201 -5.44372e-08 0)
(5.95201 -8.5557e-08 0)
(5.95201 -9.88532e-08 0)
(5.95201 -1.56633e-07 0)
(5.95201 -2.40926e-07 0)
(5.95201 -2.47755e-07 0)
(5.95201 -4.12399e-07 0)
(5.95201 -6.00945e-07 0)
(5.95201 -5.40874e-07 0)
(6.05898 1.44296e-07 0)
(6.05897 -5.15875e-07 0)
(6.05896 4.63249e-07 0)
(6.05896 -1.16261e-06 0)
(6.05896 -3.43283e-06 0)
(6.05896 -3.79416e-06 0)
(6.05897 -2.75219e-06 0)
(6.05897 -1.34894e-06 0)
(6.05897 -4.3236e-07 0)
(6.05898 8.46243e-08 0)
(6.05898 7.89813e-07 0)
(6.05899 1.53245e-06 0)
(6.05899 1.84192e-06 0)
(6.05899 1.80678e-06 0)
(6.059 1.7977e-06 0)
(6.059 1.80892e-06 0)
(6.059 1.61796e-06 0)
(6.05901 1.21953e-06 0)
(6.05901 7.99581e-07 0)
(6.05901 5.24878e-07 0)
(6.05901 4.52458e-07 0)
(6.05902 4.90172e-07 0)
(6.05902 4.5683e-07 0)
(6.05902 2.88163e-07 0)
(6.05902 1.09301e-07 0)
(6.05902 5.46665e-08 0)
(6.05902 1.08163e-07 0)
(6.05902 1.36342e-07 0)
(6.05902 3.84851e-08 0)
(6.05902 -1.60135e-07 0)
(6.05902 -3.47687e-07 0)
(6.05902 -4.54684e-07 0)
(6.05902 -5.14655e-07 0)
(6.05902 -6.04471e-07 0)
(6.05902 -7.53193e-07 0)
(6.05902 -9.11647e-07 0)
(6.05902 -1.00276e-06 0)
(6.05902 -1.00633e-06 0)
(6.05902 -9.86156e-07 0)
(6.05902 -1.01633e-06 0)
(6.05902 -1.08385e-06 0)
(6.05902 -1.09605e-06 0)
(6.05902 -9.89435e-07 0)
(6.05902 -7.97902e-07 0)
(6.05902 -6.16522e-07 0)
(6.05902 -5.0455e-07 0)
(6.05902 -4.34248e-07 0)
(6.05902 -3.34595e-07 0)
(6.05902 -1.71167e-07 0)
(6.05902 1.29832e-08 0)
(6.05902 1.37325e-07 0)
(6.05902 1.64981e-07 0)
(6.05902 1.36381e-07 0)
(6.05902 1.19211e-07 0)
(6.05902 1.38755e-07 0)
(6.05902 1.61507e-07 0)
(6.05902 1.43221e-07 0)
(6.05902 8.71691e-08 0)
(6.05902 4.92051e-08 0)
(6.05902 7.99265e-08 0)
(6.05902 1.67671e-07 0)
(6.05902 2.47083e-07 0)
(6.05902 2.63992e-07 0)
(6.05902 2.24648e-07 0)
(6.05902 1.81911e-07 0)
(6.05902 1.71831e-07 0)
(6.05902 1.734e-07 0)
(6.05902 1.30346e-07 0)
(6.05902 1.53286e-08 0)
(6.05902 -1.32755e-07 0)
(6.05902 -2.42822e-07 0)
(6.05902 -2.81661e-07 0)
(6.05902 -2.83713e-07 0)
(6.05902 -3.09572e-07 0)
(6.05902 -3.77475e-07 0)
(6.05902 -4.43353e-07 0)
(6.05902 -4.50146e-07 0)
(6.05902 -3.93873e-07 0)
(6.05902 -3.30138e-07 0)
(6.05902 -3.14501e-07 0)
(6.05902 -3.43117e-07 0)
(6.05902 -3.56998e-07 0)
(6.05902 -3.05312e-07 0)
(6.05902 -2.0294e-07 0)
(6.05902 -1.13947e-07 0)
(6.05902 -8.2138e-08 0)
(6.05902 -8.52133e-08 0)
(6.05902 -6.21928e-08 0)
(6.05902 1.27771e-08 0)
(6.05902 9.98678e-08 0)
(6.05902 1.36581e-07 0)
(6.05902 1.07334e-07 0)
(6.05902 6.17649e-08 0)
(6.05902 5.93576e-08 0)
(6.05902 1.02112e-07 0)
(6.05902 1.33927e-07 0)
(6.05902 1.05316e-07 0)
(6.05902 3.15078e-08 0)
(6.05902 -2.29385e-08 0)
(6.05902 -1.68849e-08 0)
(6.05902 2.42645e-08 0)
(6.05902 3.64032e-08 0)
(6.05902 -1.03876e-08 0)
(6.05902 -7.9276e-08 0)
(6.05902 -1.08889e-07 0)
(6.05902 -8.27249e-08 0)
(6.05902 -4.69468e-08 0)
(6.05902 -5.90809e-08 0)
(6.05902 -1.26374e-07 0)
(6.05902 -1.98273e-07 0)
(6.05902 -2.21515e-07 0)
(6.05902 -1.95937e-07 0)
(6.05902 -1.72921e-07 0)
(6.05902 -1.97416e-07 0)
(6.05902 -2.58729e-07 0)
(6.05902 -3.04187e-07 0)
(6.05902 -2.96875e-07 0)
(6.05902 -2.5094e-07 0)
(6.05902 -2.1352e-07 0)
(6.05902 -2.15495e-07 0)
(6.05902 -2.38527e-07 0)
(6.05902 -2.35689e-07 0)
(6.05902 -1.87024e-07 0)
(6.05902 -1.2512e-07 0)
(6.05902 -9.85387e-08 0)
(6.05902 -1.12942e-07 0)
(6.05902 -1.29833e-07 0)
(6.05902 -1.20281e-07 0)
(6.05902 -8.87027e-08 0)
(6.05902 -5.7634e-08 0)
(6.05902 -6.12751e-08 0)
(6.05902 -1.13831e-07 0)
(6.05902 -1.67674e-07 0)
(6.05902 -1.69148e-07 0)
(6.05902 -1.47077e-07 0)
(6.05902 -1.47997e-07 0)
(6.05902 -1.59575e-07 0)
(6.05902 -1.63563e-07 0)