/*--------------------------------*- C++ -*----------------------------------*\
| =========                 |                                                 |
| \\      /  F ield         | OpenFOAM: The Open Source CFD Toolbox           |
|  \\    /   O peration     | Version:  2406                                  |
|   \\  /    A nd           | Website:  www.openfoam.com                      |
|    \\/     M anipulation  |                                                 |
\*---------------------------------------------------------------------------*/
FoamFile
{
    version     2.0;
    format      ascii;
    arch        "LSB;label=32;scalar=64";
    class       surfaceScalarField;
    location    "0.45";
    object      alphaPhi0.air;
}
// * * * * * * * * * * * * * * * * * * * * * * * * * * * * * * * * * * * * * //

dimensions      [0 3 -1 0 0 0 0];

oriented        oriented;

internalField   nonuniform List<scalar> 
12225
(
0.435755
2.90099e-06
0.435748
7.58916e-06
0.435739
8.52338e-06
0.435733
6.48263e-06
0.435726
6.38118e-06
0.43572
6.45308e-06
0.435713
6.61337e-06
0.435708
5.75707e-06
0.435704
3.90482e-06
0.4357
3.7118e-06
0.435696
4.14818e-06
0.435692
4.35867e-06
0.435687
4.67231e-06
0.435682
4.94028e-06
0.435677
5.17777e-06
0.435671
5.31712e-06
0.435666
5.0466e-06
0.435662
4.72919e-06
0.435657
4.53102e-06
0.435653
4.05457e-06
0.435649
3.72528e-06
0.435645
3.96751e-06
0.435641
4.19951e-06
0.435637
4.24893e-06
0.435632
4.82403e-06
0.435626
5.65277e-06
0.435621
5.82319e-06
0.435615
5.38913e-06
0.43561
5.0686e-06
0.435605
4.70964e-06
0.435601
4.17529e-06
0.435598
3.72717e-06
0.435594
3.47149e-06
0.435591
3.51852e-06
0.435587
3.83475e-06
0.435582
4.26393e-06
0.435578
4.61576e-06
0.435573
4.63783e-06
0.435569
4.4521e-06
0.435564
4.56621e-06
0.435559
5.09348e-06
0.435554
5.57418e-06
0.435548
5.78627e-06
0.435542
6.03533e-06
0.435535
6.4864e-06
0.435528
6.83509e-06
0.435522
6.78778e-06
0.435515
6.32806e-06
0.43551
5.65614e-06
0.435504
5.17027e-06
0.435499
5.20296e-06
0.435494
5.56616e-06
0.435488
5.7236e-06
0.435483
5.46484e-06
0.435477
5.0769e-06
0.435473
4.8931e-06
0.435468
4.92528e-06
0.435463
5.10342e-06
0.435457
5.42931e-06
0.435451
5.79903e-06
0.435445
5.97678e-06
0.435439
5.85305e-06
0.435434
5.58521e-06
0.435428
5.38603e-06
0.435423
5.32426e-06
0.435418
5.36053e-06
0.435412
5.45029e-06
0.435407
5.54461e-06
0.435401
5.58557e-06
0.435396
5.54279e-06
0.43539
5.4279e-06
0.435385
5.28117e-06
0.43538
5.16504e-06
0.435375
5.10067e-06
0.43537
4.9915e-06
0.435365
4.72031e-06
0.435361
4.34723e-06
0.435357
4.08118e-06
0.435353
3.99856e-06
0.435349
3.90887e-06
0.435345
3.5896e-06
0.435342
3.09125e-06
0.435339
2.68507e-06
0.435337
2.53795e-06
0.435334
2.5478e-06
0.435332
2.47552e-06
0.43533
2.18943e-06
0.435328
1.79439e-06
0.435326
1.50558e-06
0.435325
1.42032e-06
0.435323
1.48307e-06
0.435322
1.476e-06
0.435321
1.20051e-06
0.43532
7.88767e-07
0.435319
4.81413e-07
0.435319
4.66224e-07
0.435318
7.10136e-07
0.435317
8.17761e-07
0.435317
6.64063e-07
0.435316
4.11588e-07
0.435316
3.00627e-07
0.435316
4.03275e-07
0.435315
4.90455e-07
0.435315
4.3474e-07
0.435314
3.25667e-07
0.435314
2.73654e-07
0.435314
3.49998e-07
0.435313
4.63354e-07
0.435313
4.65893e-07
0.435312
3.30661e-07
0.435312
1.86593e-07
0.435312
1.33717e-07
0.435312
2.00645e-07
0.435312
3.23041e-07
0.435311
3.99266e-07
0.435311
4.09849e-07
0.43531
3.6831e-07
0.43531
2.90927e-07
0.43531
2.01644e-07
0.43531
1.02435e-07
0.43531
3.50481e-08
0.43531
9.14906e-08
0.435309
2.61677e-07
0.435309
3.52134e-07
0.435309
2.50742e-07
0.435309
6.82951e-08
0.435309
-1.44225e-08
0.435309
5.68887e-08
0.435309
1.85568e-07
0.435308
1.78239e-07
0.435308
7.81007e-09
0.435309
-1.31436e-07
0.435309
-1.01892e-07
0.435309
8.07911e-08
0.435308
2.1506e-07
0.435308
1.54789e-07
0.435308
-3.87087e-08
0.435308
-1.76061e-07
0.435309
-1.29947e-07
0.435308
2.68841e-08
0.435308
9.2102e-08
0.435308
-3.45812e-08
0.435309
-1.83849e-07
0.435309
-1.74395e-07
0.435309
-2.50151e-08
0.435309
7.19173e-08
0.435309
-7.59014e-08
0.435309
-4.25692e-07
0.43531
-7.16848e-07
0.435311
-7.36887e-07
0.435311
-4.895e-07
0.435311
-2.06029e-07
0.435311
-5.44323e-08
0.435312
-1.0173e-07
0.435312
-3.78647e-07
0.435313
-6.96864e-07
0.435314
-9.02939e-07
0.435314
-9.05927e-07
0.435315
-7.47208e-07
0.435316
-5.61165e-07
0.435316
-4.4015e-07
0.435317
-3.90171e-07
0.435317
-3.79796e-07
0.435317
-4.0374e-07
0.435318
-4.96985e-07
0.435318
-6.48698e-07
0.435319
-7.80425e-07
0.43532
-8.07161e-07
0.435321
-7.41198e-07
0.435321
-6.55324e-07
0.435322
-6.28977e-07
0.435323
-6.83966e-07
0.435324
-8.09995e-07
0.435325
-9.98877e-07
0.435326
-1.25263e-06
0.435327
-1.56072e-06
0.435329
-1.85673e-06
0.435331
-2.0353e-06
0.435333
-2.00849e-06
0.435335
-1.7868e-06
0.435337
-1.48401e-06
0.435338
-1.25298e-06
0.435339
-1.17651e-06
0.43534
-1.2146e-06
0.435341
-1.2546e-06
0.435343
-1.22778e-06
0.435344
-1.13287e-06
0.435345
-1.00086e-06
0.435346
-8.34225e-07
0.435346
-6.27426e-07
0.435347
-4.1337e-07
0.435347
-2.48711e-07
0.435347
-1.75151e-07
0.435347
-1.68451e-07
0.435347
-1.52655e-07
0.435348
-1.11002e-07
0.435348
-1.19607e-07
0.435348
-1.99498e-07
0.435348
-2.66849e-07
0.435348
-1.63849e-07
0.435348
1.69296e-07
0.435348
5.72096e-07
0.435347
7.98266e-07
0.435346
7.47188e-07
0.435345
5.74843e-07
0.435345
5.22155e-07
0.435344
6.49268e-07
0.435344
7.69255e-07
0.435343
6.58158e-07
0.435343
3.26893e-07
0.435343
-2.34448e-08
0.435343
-1.805e-07
0.435343
-4.03175e-08
0.435343
1.99432e-07
0.435342
3.45663e-07
0.435342
3.67676e-07
0.435342
3.46773e-07
0.435341
3.46864e-07
0.435341
3.60588e-07
0.43534
3.61686e-07
0.43534
3.43301e-07
0.43534
3.07512e-07
0.43534
2.42145e-07
0.435339
1.19076e-07
0.43534
-5.33712e-08
0.43534
-2.20402e-07
0.43534
-2.69628e-07
0.43534
-1.44256e-07
0.43534
9.8212e-08
0.43534
3.09941e-07
0.435339
3.11055e-07
0.435339
1.73933e-07
0.435339
1.32632e-07
0.435339
2.99414e-07
0.435338
6.0097e-07
0.435337
7.95055e-07
0.435337
7.17611e-07
0.435336
4.01482e-07
0.435336
8.64462e-08
0.435336
-1.77279e-07
0.435337
-2.70289e-07
0.435337
-2.5205e-07
0.435337
-2.06412e-07
0.435337
-1.86881e-07
0.435338
-2.26677e-07
0.435338
-2.95884e-07
0.435338
-3.6301e-07
0.435339
-3.67537e-07
0.435339
-3.96734e-07
-2.95085e-07
0.435766
-8.98032e-07
0.435773
9.26309e-08
0.43578
1.87442e-06
0.435784
2.17517e-06
0.435789
1.78538e-06
0.435793
1.73497e-06
0.435799
1.4818e-06
0.435802
2.15639e-06
0.435803
2.55596e-06
0.435805
2.04555e-06
0.435807
2.05429e-06
0.435809
2.62216e-06
0.435811
2.68105e-06
0.435814
2.2958e-06
0.435817
2.12915e-06
0.43582
2.41368e-06
0.435822
2.53751e-06
0.435824
2.42558e-06
0.435826
2.9466e-06
0.435826
3.66021e-06
0.435827
3.47074e-06
0.435827
3.0952e-06
0.435828
3.28831e-06
0.435829
3.2667e-06
0.435831
2.91138e-06
0.435834
2.77403e-06
0.435837
2.95023e-06
0.43584
2.82393e-06
0.435842
2.26152e-06
0.435845
1.74517e-06
0.435848
1.4373e-06
0.43585
1.38856e-06
0.435852
1.81133e-06
0.435853
2.40197e-06
0.435854
2.63271e-06
0.435856
2.65026e-06
0.435858
2.8351e-06
0.435859
2.97806e-06
0.435861
2.66018e-06
0.435864
2.09399e-06
0.435867
1.92468e-06
0.43587
2.32268e-06
0.435873
2.67834e-06
0.435877
2.41981e-06
0.435882
1.76144e-06
0.435887
1.36108e-06
0.435892
1.7473e-06
0.435896
2.45476e-06
0.435899
2.76426e-06
0.435902
2.4413e-06
0.435905
1.92734e-06
0.435909
1.72626e-06
0.435913
1.86052e-06
0.435916
2.12333e-06
0.435919
2.50537e-06
0.43592
2.96093e-06
0.435922
3.0907e-06
0.435925
2.58261e-06
0.435928
1.77518e-06
0.435933
1.31369e-06
0.435937
1.46147e-06
0.435941
1.93189e-06
0.435945
2.39597e-06
0.435947
2.73347e-06
0.43595
2.89096e-06
0.435952
2.84219e-06
0.435955
2.70468e-06
0.435958
2.6534e-06
0.435961
2.70381e-06
0.435964
2.72172e-06
0.435966
2.62282e-06
0.435969
2.44412e-06
0.435972
2.26836e-06
0.435975
2.15455e-06
0.435978
2.10191e-06
0.435981
2.05642e-06
0.435983
1.99222e-06
0.435985
1.9905e-06
0.435987
2.14622e-06
0.435988
2.39987e-06
0.435989
2.573e-06
0.43599
2.59242e-06
0.43599
2.57061e-06
0.43599
2.62291e-06
0.43599
2.69245e-06
0.43599
2.63201e-06
0.435989
2.41858e-06
0.435989
2.18913e-06
0.435988
2.07094e-06
0.435988
2.05152e-06
0.435987
2.05165e-06
0.435987
2.05947e-06
0.435986
2.10105e-06
0.435984
2.14158e-06
0.435983
2.09804e-06
0.435981
2.01359e-06
0.43598
2.05034e-06
0.435978
2.21351e-06
0.435977
2.32897e-06
0.435975
2.24789e-06
0.435973
2.04688e-06
0.435972
1.93688e-06
0.43597
1.98064e-06
0.435969
2.06805e-06
0.435967
2.09366e-06
0.435965
2.07228e-06
0.435963
2.10256e-06
0.435961
2.21496e-06
0.43596
2.3327e-06
0.435958
2.37671e-06
0.435955
2.37572e-06
0.435953
2.43243e-06
0.435951
2.61809e-06
0.435948
2.85267e-06
0.435946
2.94732e-06
0.435943
2.80875e-06
0.435941
2.55307e-06
0.435939
2.41494e-06
0.435937
2.51968e-06
0.435934
2.75331e-06
0.435931
2.87978e-06
0.435928
2.78642e-06
0.435926
2.58769e-06
0.435924
2.45567e-06
0.435922
2.4305e-06
0.435919
2.43022e-06
0.435917
2.39151e-06
0.435915
2.34452e-06
0.435913
2.34692e-06
0.43591
2.36885e-06
0.435908
2.31686e-06
0.435906
2.17046e-06
0.435904
2.05597e-06
0.435902
2.13655e-06
0.435899
2.39806e-06
0.435897
2.63399e-06
0.435894
2.62971e-06
0.435892
2.38428e-06
0.435889
2.14532e-06
0.435887
2.16364e-06
0.435885
2.42005e-06
0.435882
2.63704e-06
0.435879
2.57323e-06
0.435877
2.25905e-06
0.435875
1.95578e-06
0.435873
1.86531e-06
0.435871
1.93949e-06
0.435869
1.99246e-06
0.435866
1.92681e-06
0.435864
1.79707e-06
0.435861
1.70208e-06
0.43586
1.66545e-06
0.435858
1.65102e-06
0.435856
1.60088e-06
0.435854
1.46591e-06
0.435852
1.2628e-06
0.43585
1.06045e-06
0.435849
9.53064e-07
0.435847
1.01196e-06
0.435845
1.19594e-06
0.435843
1.37042e-06
0.435841
1.41466e-06
0.43584
1.31051e-06
0.435838
1.11751e-06
0.435837
8.93774e-07
0.435836
6.71581e-07
0.435834
4.80852e-07
0.435833
3.86028e-07
0.435832
3.91443e-07
0.435831
4.16693e-07
0.43583
3.53539e-07
0.435829
1.389e-07
0.435828
-1.94568e-07
0.435828
-5.07672e-07
0.435827
-7.23979e-07
0.435827
-8.44186e-07
0.435826
-9.01206e-07
0.435825
-9.17014e-07
0.435823
-8.67394e-07
0.435822
-7.08383e-07
0.435821
-4.57752e-07
0.43582
-2.16564e-07
0.435819
-1.1157e-07
0.435818
-2.0471e-07
0.435817
-3.85292e-07
0.435817
-4.9567e-07
0.435816
-4.62154e-07
0.435815
-3.23509e-07
0.435815
-1.78062e-07
0.435814
-4.36847e-08
0.435814
8.77335e-08
0.435813
2.0096e-07
0.435813
2.25041e-07
0.435812
1.1194e-07
0.435812
-8.78153e-08
0.435813
-2.40184e-07
0.435813
-2.67641e-07
0.435813
-2.49743e-07
0.435813
-3.16914e-07
0.435813
-4.97772e-07
0.435814
-6.53796e-07
0.435815
-6.14024e-07
0.435816
-3.78257e-07
0.435817
-1.65158e-07
0.435818
-2.09059e-07
0.435819
-5.04501e-07
0.43582
-7.9794e-07
0.435822
-8.26429e-07
0.435823
-5.99611e-07
0.435824
-3.71581e-07
0.435824
-3.33513e-07
0.435825
-4.90896e-07
0.435825
-6.2236e-07
0.435826
-5.83027e-07
0.435827
-4.13867e-07
0.435827
-2.51249e-07
0.435828
-1.66041e-07
0.435828
-1.35576e-07
0.435829
-1.23757e-07
0.435829
-1.34226e-07
0.43583
-1.74531e-07
0.43583
-2.04383e-07
0.435831
-1.91547e-07
0.435831
-1.36157e-07
0.435831
-1.01113e-07
0.435831
-1.46706e-07
0.435831
-3.01584e-07
0.435831
-4.90497e-07
0.435832
-5.63051e-07
0.435833
-4.24995e-07
0.435833
-1.69631e-07
0.435833
1.57138e-08
0.435834
-2.7949e-08
0.435834
-2.8156e-07
0.435835
-4.91483e-07
0.435837
-5.00087e-07
0.435838
-3.11419e-07
0.435838
-1.25236e-07
0.435838
-4.2716e-08
0.435838
-1.05845e-07
0.435838
-2.35796e-07
0.435838
-3.19141e-07
0.435838
-3.086e-07
0.435838
-2.28842e-07
0.435838
-1.1238e-07
0.435838
2.04207e-08
0.435837
1.25197e-07
0.435837
2.16955e-07
0.435836
3.06339e-07
4.54231e-07
0.435761
-1.33778e-07
0.435761
-3.85618e-07
0.435763
-1.09552e-07
0.435764
1.25725e-06
0.435764
2.06933e-06
0.435763
2.47496e-06
0.435762
2.42821e-06
0.435761
2.77525e-06
0.435761
3.37001e-06
0.43576
3.11442e-06
0.435759
2.2578e-06
0.435761
1.49112e-06
0.435762
1.16119e-06
0.435763
1.48188e-06
0.435763
1.80008e-06
0.435764
1.68427e-06
0.435764
1.99521e-06
0.435765
1.98871e-06
0.435766
1.43245e-06
0.435769
1.33314e-06
0.435771
1.52917e-06
0.435772
1.51033e-06
0.435774
1.41866e-06
0.435776
1.3588e-06
0.435778
1.27936e-06
0.435779
1.54169e-06
0.43578
1.82325e-06
0.435781
2.14377e-06
0.43578
2.80147e-06
0.435779
3.23584e-06
0.435777
3.25832e-06
0.435775
3.02577e-06
0.435774
2.70083e-06
0.435774
2.6756e-06
0.435774
2.76518e-06
0.435774
2.55121e-06
0.435774
2.44443e-06
0.435775
2.84369e-06
0.435774
3.17629e-06
0.435773
2.93013e-06
0.435773
2.49597e-06
0.435772
2.44441e-06
0.435772
2.70116e-06
0.435772
2.8222e-06
0.435771
2.60654e-06
0.43577
2.20483e-06
0.43577
1.97642e-06
0.43577
2.14569e-06
0.435771
2.57324e-06
0.43577
2.80872e-06
0.43577
2.59438e-06
0.435769
2.19068e-06
0.435769
1.9658e-06
0.435769
1.91501e-06
0.43577
1.91039e-06
0.435771
2.0408e-06
0.435771
2.3606e-06
0.435771
2.60692e-06
0.435771
2.50831e-06
0.43577
2.19412e-06
0.435769
2.00882e-06
0.435769
2.03851e-06
0.435769
2.09685e-06
0.43577
2.0565e-06
0.435771
1.97064e-06
0.435772
1.93601e-06
0.435773
1.99248e-06
0.435773
2.10533e-06
0.435774
2.18111e-06
0.435774
2.16431e-06
0.435775
2.12109e-06
0.435775
2.15182e-06
0.435775
2.22897e-06
0.435775
2.2416e-06
0.435775
2.18066e-06
0.435775
2.14102e-06
0.435775
2.14962e-06
0.435775
2.12827e-06
0.435775
2.03184e-06
0.435775
1.91983e-06
0.435776
1.86827e-06
0.435777
1.88828e-06
0.435777
1.95078e-06
0.435778
2.03133e-06
0.435778
2.10788e-06
0.435779
2.16236e-06
0.435779
2.21047e-06
0.435779
2.2989e-06
0.435779
2.43569e-06
0.435778
2.52945e-06
0.435778
2.4674e-06
0.435778
2.27785e-06
0.435777
2.14308e-06
0.435777
2.19376e-06
0.435777
2.32272e-06
0.435777
2.32859e-06
0.435777
2.19034e-06
0.435777
2.06758e-06
0.435777
2.06885e-06
0.435777
2.11624e-06
0.435777
2.08751e-06
0.435777
1.99176e-06
0.435777
1.92395e-06
0.435777
1.92058e-06
0.435778
1.91931e-06
0.435778
1.84359e-06
0.435778
1.69535e-06
0.435779
1.55006e-06
0.43578
1.47591e-06
0.435781
1.47028e-06
0.435782
1.47721e-06
0.435782
1.45657e-06
0.435784
1.42718e-06
0.435785
1.41941e-06
0.435787
1.4116e-06
0.435788
1.3395e-06
0.435789
1.18409e-06
0.435791
1.04593e-06
0.435792
1.08938e-06
0.435794
1.36637e-06
0.435795
1.72326e-06
0.435796
1.93459e-06
0.435796
1.92729e-06
0.435797
1.83969e-06
0.435798
1.85187e-06
0.435798
1.99544e-06
0.435798
2.14658e-06
0.435798
2.18245e-06
0.435799
2.10821e-06
0.435799
2.01516e-06
0.435799
1.95531e-06
0.4358
1.89272e-06
0.4358
1.78396e-06
0.4358
1.67343e-06
0.435801
1.65814e-06
0.435802
1.75855e-06
0.435803
1.8528e-06
0.435803
1.77935e-06
0.435804
1.5234e-06
0.435805
1.26815e-06
0.435806
1.22496e-06
0.435807
1.40862e-06
0.435808
1.60427e-06
0.435809
1.57942e-06
0.43581
1.32309e-06
0.43581
1.04575e-06
0.435811
9.55743e-07
0.435812
1.07431e-06
0.435813
1.26223e-06
0.435813
1.36866e-06
0.435814
1.32854e-06
0.435814
1.15415e-06
0.435815
8.91982e-07
0.435816
6.00416e-07
0.435817
3.40643e-07
0.435818
1.25637e-07
0.435819
-1.63937e-08
0.43582
-1.34008e-07
0.435822
-1.88025e-07
0.435823
-1.58731e-07
0.435824
-8.62713e-08
0.435826
-5.32215e-08
0.435827
-9.20065e-08
0.435829
-1.57011e-07
0.43583
-1.67021e-07
0.43583
-8.40154e-08
0.435831
6.86363e-08
0.435831
2.73071e-07
0.435831
5.32517e-07
0.43583
8.2739e-07
0.43583
1.0803e-06
0.435829
1.1755e-06
0.435827
1.05453e-06
0.435826
7.8476e-07
0.435825
5.14968e-07
0.435824
3.76585e-07
0.435822
4.20313e-07
0.435821
5.78454e-07
0.435819
7.37273e-07
0.435818
8.21162e-07
0.435816
8.3461e-07
0.435815
8.22038e-07
0.435814
7.85311e-07
0.435814
6.7202e-07
0.435813
4.68746e-07
0.435812
2.51544e-07
0.435811
1.47231e-07
0.435811
2.16711e-07
0.43581
3.77293e-07
0.43581
5.19973e-07
0.435809
5.84391e-07
0.435809
5.85074e-07
0.435809
5.4533e-07
0.435808
4.34459e-07
0.435808
2.14372e-07
0.435808
-6.19906e-08
0.435808
-2.65505e-07
0.435808
-3.0758e-07
0.435808
-2.34554e-07
0.435807
-1.97531e-07
0.435807
-3.08303e-07
0.435807
-5.0408e-07
0.435807
-6.0333e-07
0.435808
-5.15786e-07
0.435808
-3.60544e-07
0.435808
-3.43977e-07
0.435807
-5.53288e-07
0.435807
-8.43576e-07
0.435808
-9.78822e-07
0.435808
-8.81856e-07
0.435809
-6.85009e-07
0.435809
-5.79504e-07
0.435809
-6.0407e-07
0.435809
-6.55167e-07
0.435809
-6.34712e-07
0.435809
-5.44471e-07
0.435809
-4.44123e-07
0.43581
-3.67389e-07
0.43581
-3.05462e-07
0.43581
-2.51903e-07
0.43581
-2.33295e-07
0.43581
-2.72848e-07
0.43581
-3.49433e-07
0.435811
-3.96579e-07
0.435811
-3.67189e-07
0.435811
-2.77164e-07
0.435811
-2.13863e-07
0.435811
-2.7176e-07
0.435811
-4.50642e-07
0.435811
-6.2451e-07
0.435811
-6.45313e-07
0.435812
-4.81644e-07
0.435812
-2.66124e-07
0.435812
-2.04016e-07
0.435812
-2.7832e-07
0.435812
-4.60241e-07
0.435812
-5.71979e-07
0.435812
-5.45171e-07
0.435813
-4.19257e-07
0.435813
-2.99574e-07
0.435813
-2.44828e-07
0.435813
-2.33501e-07
0.435813
-2.13456e-07
0.435813
-1.39143e-07
0.435812
-1.20277e-08
0.435812
1.66204e-07
0.435812
3.53308e-07
0.435812
5.27292e-07
0.435811
6.54791e-07
8.84443e-07
0.435761
7.29799e-07
0.435759
1.52037e-06
0.435758
1.33195e-06
0.435759
5.41963e-07
0.43576
3.4498e-07
0.435762
9.52437e-07
0.435763
1.4307e-06
0.435764
1.13506e-06
0.435767
7.18116e-07
0.435769
8.98286e-07
0.43577
1.82564e-06
0.435768
2.78184e-06
0.435767
2.74727e-06
0.435766
2.04371e-06
0.435766
1.71829e-06
0.435766
1.7001e-06
0.435767
1.87248e-06
0.435767
1.88073e-06
0.435766
1.83926e-06
0.435765
2.08536e-06
0.435765
2.38392e-06
0.435764
2.19919e-06
0.435763
1.9635e-06
0.435762
2.29364e-06
0.435762
2.1695e-06
0.435761
1.67729e-06
0.435762
1.67759e-06
0.435762
1.68616e-06
0.435763
1.5014e-06
0.435765
1.6123e-06
0.435766
1.89488e-06
0.435767
2.00965e-06
0.435768
1.94869e-06
0.435769
1.88383e-06
0.43577
1.83103e-06
0.435771
1.64385e-06
0.435772
1.35711e-06
0.435773
1.26436e-06
0.435775
1.54625e-06
0.435776
1.97727e-06
0.435776
2.14619e-06
0.435777
1.98066e-06
0.435778
1.83479e-06
0.435778
1.99899e-06
0.435779
2.31121e-06
0.435779
2.36724e-06
0.435779
2.03908e-06
0.435779
1.61854e-06
0.43578
1.43172e-06
0.435782
1.51067e-06
0.435782
1.6317e-06
0.435783
1.7177e-06
0.435783
1.86663e-06
0.435783
1.96823e-06
0.435783
1.82099e-06
0.435784
1.52117e-06
0.435785
1.42682e-06
0.435785
1.66824e-06
0.435786
2.00576e-06
0.435786
2.22389e-06
0.435786
2.34739e-06
0.435785
2.40225e-06
0.435785
2.28571e-06
0.435785
1.99608e-06
0.435785
1.74207e-06
0.435786
1.69355e-06
0.435786
1.80352e-06
0.435786
1.89541e-06
0.435786
1.8735e-06
0.435787
1.77572e-06
0.435787
1.70434e-06
0.435788
1.73135e-06
0.435788
1.81118e-06
0.435788
1.82923e-06
0.435789
1.77019e-06
0.435789
1.75522e-06
0.435789
1.85601e-06
0.43579
1.96803e-06
0.43579
1.95026e-06
0.43579
1.8199e-06
0.43579
1.72151e-06
0.43579
1.73202e-06
0.43579
1.77875e-06
0.435791
1.75e-06
0.435791
1.63118e-06
0.435792
1.51128e-06
0.435792
1.48434e-06
0.435793
1.57254e-06
0.435794
1.72636e-06
0.435795
1.85288e-06
0.435795
1.85716e-06
0.435796
1.72082e-06
0.435796
1.57091e-06
0.435797
1.5918e-06
0.435797
1.80396e-06
0.435798
2.01049e-06
0.435798
2.02164e-06
0.435798
1.88297e-06
0.435798
1.79399e-06
0.435799
1.84315e-06
0.435799
1.9339e-06
0.435799
1.94859e-06
0.435799
1.89454e-06
0.435799
1.8652e-06
0.435799
1.90601e-06
0.435799
1.95803e-06
0.435799
1.93131e-06
0.435798
1.81782e-06
0.435798
1.71975e-06
0.435798
1.7563e-06
0.435797
1.94104e-06
0.435797
2.15678e-06
0.435796
2.25484e-06
0.435795
2.18446e-06
0.435794
2.02998e-06
0.435794
1.92047e-06
0.435793
1.91211e-06
0.435792
1.96942e-06
0.435791
2.04414e-06
0.43579
2.12537e-06
0.43579
2.19943e-06
0.43579
2.20915e-06
0.435789
2.107e-06
0.435789
1.94262e-06
0.435789
1.84546e-06
0.435789
1.89464e-06
0.43579
2.0242e-06
0.43579
2.08417e-06
0.43579
1.99743e-06
0.43579
1.84258e-06
0.43579
1.7749e-06
0.43579
1.86656e-06
0.43579
2.03824e-06
0.435789
2.15374e-06
0.435789
2.1648e-06
0.435789
2.14861e-06
0.435788
2.2e-06
0.435788
2.30405e-06
0.435787
2.34578e-06
0.435786
2.24898e-06
0.435785
2.07909e-06
0.435784
1.97792e-06
0.435784
1.99813e-06
0.435784
2.04029e-06
0.435783
1.9744e-06
0.435782
1.80021e-06
0.435781
1.65527e-06
0.435781
1.66995e-06
0.43578
1.84862e-06
0.43578
2.08603e-06
0.435779
2.26442e-06
0.435777
2.317e-06
0.435776
2.23528e-06
0.435775
2.06784e-06
0.435773
1.91106e-06
0.435771
1.8552e-06
0.435769
1.92681e-06
0.435767
2.0487e-06
0.435765
2.1306e-06
0.435763
2.12449e-06
0.435761
2.02242e-06
0.435759
1.81673e-06
0.435757
1.50017e-06
0.435756
1.10669e-06
0.435755
7.2978e-07
0.435754
4.64024e-07
0.435754
3.28889e-07
0.435754
2.61302e-07
0.435754
1.86652e-07
0.435755
7.76678e-08
0.435756
-7.90965e-08
0.435758
-2.87932e-07
0.435759
-5.64385e-07
0.435761
-8.9835e-07
0.435763
-1.23656e-06
0.435765
-1.48874e-06
0.435767
-1.57391e-06
0.435769
-1.48635e-06
0.435771
-1.32498e-06
0.435773
-1.2328e-06
0.435775
-1.28689e-06
0.435777
-1.46504e-06
0.43578
-1.67675e-06
0.435782
-1.8458e-06
0.435785
-1.9601e-06
0.435787
-2.02677e-06
0.435789
-2.01336e-06
0.435791
-1.87049e-06
0.435793
-1.60943e-06
0.435795
-1.31473e-06
0.435797
-1.07517e-06
0.435798
-9.12655e-07
0.4358
-8.00809e-07
0.435801
-7.23573e-07
0.435802
-7.11199e-07
0.435802
-8.02281e-07
0.435803
-9.65746e-07
0.435804
-1.08723e-06
0.435805
-1.05626e-06
0.435805
-8.80251e-07
0.435806
-7.0147e-07
0.435806
-6.67273e-07
0.435806
-7.81811e-07
0.435807
-9.03983e-07
0.435807
-8.97863e-07
0.435808
-7.78912e-07
0.435808
-6.98183e-07
0.435808
-7.67196e-07
0.435808
-9.3346e-07
0.435808
-1.04677e-06
0.435808
-1.02043e-06
0.435808
-9.06215e-07
0.435809
-8.06652e-07
0.435809
-7.60097e-07
0.435809
-7.30872e-07
0.435809
-6.8127e-07
0.435809
-6.17391e-07
0.435809
-5.62749e-07
0.435809
-5.16262e-07
0.43581
-4.58213e-07
0.43581
-3.88759e-07
0.43581
-3.38883e-07
0.43581
-3.45622e-07
0.43581
-4.16094e-07
0.43581
-5.07465e-07
0.43581
-5.49291e-07
0.435811
-5.00131e-07
0.435811
-4.01068e-07
0.435811
-3.52716e-07
0.43581
-4.19199e-07
0.43581
-5.67062e-07
0.435811
-6.78867e-07
0.435811
-6.67265e-07
0.435811
-5.58278e-07
0.435812
-4.4031e-07
0.435811
-4.11806e-07
0.435811
-4.65544e-07
0.435811
-5.31565e-07
0.435811
-5.46435e-07
0.435812
-4.95335e-07
0.435812
-3.96816e-07
0.435812
-2.76799e-07
0.435812
-1.51216e-07
0.435812
-1.39783e-08
0.435812
1.44598e-07
0.435811
3.39047e-07
0.435811
5.62275e-07
0.435811
8.03655e-07
0.435811
9.97288e-07
1.29455e-06
0.435765
-3.11293e-07
0.435766
6.29655e-07
0.435766
1.72147e-06
0.435764
2.35099e-06
0.435763
1.55468e-06
0.435763
6.2318e-07
0.435763
1.54516e-06
0.435762
2.30728e-06
0.43576
2.60131e-06
0.435758
2.54418e-06
0.435758
1.90687e-06
0.43576
1.62722e-06
0.43576
2.10421e-06
0.43576
2.47555e-06
0.435759
2.403e-06
0.435759
1.75881e-06
0.435759
1.34967e-06
0.43576
1.52637e-06
0.43576
1.47048e-06
0.435761
1.1272e-06
0.435762
1.1354e-06
0.435763
1.43292e-06
0.435764
1.56334e-06
0.435764
1.57903e-06
0.435765
1.72606e-06
0.435765
1.61904e-06
0.435765
1.3622e-06
0.435766
1.26155e-06
0.435766
1.0303e-06
0.435767
6.8299e-07
0.435768
6.45737e-07
0.435769
8.9947e-07
0.43577
9.54152e-07
0.435771
8.58915e-07
0.435772
1.18872e-06
0.435772
1.74325e-06
0.435771
1.77062e-06
0.435771
1.27366e-06
0.435772
9.77906e-07
0.435773
1.13122e-06
0.435774
1.32277e-06
0.435774
1.28256e-06
0.435775
1.17493e-06
0.435776
1.22068e-06
0.435777
1.44005e-06
0.435777
1.73335e-06
0.435777
1.93902e-06
0.435777
1.9199e-06
0.435777
1.78525e-06
0.435776
1.80079e-06
0.435776
1.98695e-06
0.435776
2.09677e-06
0.435776
2.04553e-06
0.435776
1.99936e-06
0.435775
2.01621e-06
0.435775
1.93339e-06
0.435775
1.70286e-06
0.435775
1.48817e-06
0.435775
1.45058e-06
0.435776
1.54679e-06
0.435777
1.63271e-06
0.435778
1.62305e-06
0.435778
1.52946e-06
0.435779
1.45523e-06
0.435779
1.52187e-06
0.435779
1.71017e-06
0.435779
1.84741e-06
0.435779
1.81124e-06
0.435779
1.68208e-06
0.435779
1.62247e-06
0.435779
1.67771e-06
0.435779
1.78444e-06
0.435779
1.87743e-06
0.435779
1.91329e-06
0.435779
1.87419e-06
0.435779
1.80035e-06
0.435779
1.76061e-06
0.435779
1.76438e-06
0.43578
1.76032e-06
0.43578
1.72853e-06
0.43578
1.7144e-06
0.43578
1.74109e-06
0.43578
1.74671e-06
0.43578
1.65384e-06
0.43578
1.47477e-06
0.43578
1.30985e-06
0.43578
1.23453e-06
0.435781
1.22063e-06
0.435781
1.19961e-06
0.435782
1.16011e-06
0.435783
1.14412e-06
0.435783
1.15222e-06
0.435784
1.14171e-06
0.435784
1.12594e-06
0.435785
1.17283e-06
0.435786
1.28811e-06
0.435786
1.36487e-06
0.435787
1.32054e-06
0.435787
1.21217e-06
0.435788
1.15498e-06
0.435789
1.18446e-06
0.435789
1.2428e-06
0.43579
1.27983e-06
0.435791
1.31395e-06
0.435791
1.38744e-06
0.435792
1.49842e-06
0.435792
1.59412e-06
0.435792
1.63273e-06
0.435792
1.64585e-06
0.435792
1.72279e-06
0.435792
1.91517e-06
0.435792
2.15685e-06
0.435792
2.29097e-06
0.435792
2.2014e-06
0.435792
1.93361e-06
0.435793
1.67634e-06
0.435793
1.59952e-06
0.435793
1.70153e-06
0.435793
1.82553e-06
0.435794
1.82319e-06
0.435794
1.67718e-06
0.435795
1.46996e-06
0.435796
1.28086e-06
0.435797
1.1432e-06
0.435797
1.07383e-06
0.435798
1.0913e-06
0.435799
1.18132e-06
0.4358
1.26994e-06
0.435801
1.27045e-06
0.435801
1.17353e-06
0.435802
1.08233e-06
0.435803
1.13015e-06
0.435803
1.34531e-06
0.435804
1.60264e-06
0.435804
1.7253e-06
0.435805
1.64742e-06
0.435806
1.47081e-06
0.435806
1.35402e-06
0.435807
1.35012e-06
0.435808
1.36156e-06
0.435809
1.25672e-06
0.43581
1.01616e-06
0.435811
7.42521e-07
0.435813
5.37529e-07
0.435814
4.0766e-07
0.435816
2.99971e-07
0.435817
2.00948e-07
0.435819
1.45668e-07
0.435821
1.61504e-07
0.435823
2.19615e-07
0.435825
2.61656e-07
0.435827
2.54782e-07
0.435829
2.01962e-07
0.435831
1.31901e-07
0.435832
9.80695e-08
0.435834
1.71138e-07
0.435836
4.04721e-07
0.435837
7.68016e-07
0.435838
1.15238e-06
0.435839
1.44621e-06
0.435839
1.60077e-06
0.435839
1.6267e-06
0.435839
1.55029e-06
0.435839
1.40481e-06
0.435838
1.24127e-06
0.435838
1.13667e-06
0.435837
1.13403e-06
0.435836
1.19967e-06
0.435835
1.23949e-06
0.435834
1.1658e-06
0.435833
9.49111e-07
0.435832
6.30312e-07
0.435831
2.82557e-07
0.43583
-2.57233e-08
0.435829
-2.52517e-07
0.435828
-3.79917e-07
0.435827
-3.97245e-07
0.435826
-3.03778e-07
0.435824
-1.32264e-07
0.435823
1.85285e-08
0.435822
6.18016e-08
0.43582
-6.21138e-08
0.435819
-3.20449e-07
0.435818
-5.79223e-07
0.435817
-7.44942e-07
0.435815
-8.01284e-07
0.435814
-7.72013e-07
0.435813
-6.65673e-07
0.435812
-4.80577e-07
0.435811
-2.5145e-07
0.43581
-6.05587e-08
0.435809
2.62053e-08
0.435808
-5.31804e-09
0.435807
-9.30944e-08
0.435807
-1.67844e-07
0.435806
-2.28827e-07
0.435806
-3.22893e-07
0.435805
-4.70511e-07
0.435804
-6.11189e-07
0.435804
-6.49623e-07
0.435804
-5.62646e-07
0.435804
-4.51626e-07
0.435804
-4.59975e-07
0.435803
-6.35181e-07
0.435803
-8.74741e-07
0.435804
-1.03136e-06
0.435804
-1.0628e-06
0.435804
-1.05791e-06
0.435804
-1.11739e-06
0.435805
-1.23917e-06
0.435805
-1.33443e-06
0.435805
-1.33844e-06
0.435806
-1.27088e-06
0.435806
-1.18933e-06
0.435807
-1.11828e-06
0.435807
-1.04227e-06
0.435807
-9.50661e-07
0.435808
-8.61294e-07
0.435808
-7.95778e-07
0.435808
-7.4895e-07
0.435808
-6.94814e-07
0.435809
-6.17945e-07
0.435809
-5.34707e-07
0.435809
-4.88566e-07
0.435809
-5.15386e-07
0.435809
-6.04621e-07
0.435809
-6.88594e-07
0.43581
-6.95179e-07
0.43581
-6.16626e-07
0.43581
-5.25669e-07
0.43581
-5.11044e-07
0.43581
-5.90841e-07
0.43581
-6.95319e-07
0.43581
-7.38653e-07
0.43581
-6.95289e-07
0.43581
-6.15578e-07
0.435811
-5.60758e-07
0.435811
-5.46311e-07
0.435811
-5.44348e-07
0.435811
-5.16619e-07
0.435811
-4.40028e-07
0.435811
-3.1007e-07
0.435811
-1.3732e-07
0.435811
6.6708e-08
0.43581
2.91223e-07
0.43581
5.33768e-07
0.43581
7.92219e-07
0.43581
1.07414e-06
0.435809
1.32153e-06
1.72356e-06
0.435761
-7.13045e-07
0.435763
-6.23298e-07
0.435764
1.1601e-07
0.435766
7.56124e-07
0.435766
1.39047e-06
0.435765
1.41e-06
0.435766
1.15235e-06
0.435766
1.48335e-06
0.435768
1.3869e-06
0.435769
1.01876e-06
0.43577
9.0821e-07
0.435771
9.05264e-07
0.435772
7.13669e-07
0.435774
4.74984e-07
0.435776
7.80688e-07
0.435776
1.46072e-06
0.435776
1.43358e-06
0.435776
1.43156e-06
0.435776
1.48059e-06
0.435776
1.25847e-06
0.435776
1.34161e-06
0.435776
1.55991e-06
0.435776
1.68935e-06
0.435775
1.78359e-06
0.435775
1.66466e-06
0.435776
1.46554e-06
0.435775
1.53111e-06
0.435775
1.68485e-06
0.435774
1.67589e-06
0.435773
1.70052e-06
0.435772
1.86046e-06
0.435771
1.99824e-06
0.43577
1.93173e-06
0.435769
1.59924e-06
0.435769
1.35422e-06
0.435769
1.51925e-06
0.435769
1.84203e-06
0.435769
1.91596e-06
0.435768
1.73996e-06
0.435767
1.6032e-06
0.435767
1.6495e-06
0.435767
1.77088e-06
0.435766
1.7794e-06
0.435766
1.58892e-06
0.435766
1.33726e-06
0.435766
1.22958e-06
0.435767
1.26008e-06
0.435768
1.25369e-06
0.435768
1.17349e-06
0.435769
1.21141e-06
0.435769
1.42686e-06
0.43577
1.48969e-06
0.435771
1.26281e-06
0.435772
1.08063e-06
0.435772
1.21724e-06
0.435773
1.45843e-06
0.435773
1.46474e-06
0.435773
1.29317e-06
0.435774
1.22843e-06
0.435774
1.32531e-06
0.435774
1.36148e-06
0.435774
1.23518e-06
0.435775
1.1017e-06
0.435775
1.13713e-06
0.435775
1.31915e-06
0.435776
1.47339e-06
0.435776
1.46122e-06
0.435776
1.31342e-06
0.435777
1.18039e-06
0.435777
1.17008e-06
0.435778
1.22763e-06
0.435778
1.25234e-06
0.435779
1.26488e-06
0.43578
1.34469e-06
0.43578
1.46539e-06
0.43578
1.51031e-06
0.435781
1.4389e-06
0.435781
1.3407e-06
0.435781
1.3181e-06
0.435782
1.38452e-06
0.435782
1.48152e-06
0.435782
1.54753e-06
0.435782
1.55715e-06
0.435783
1.52252e-06
0.435783
1.48536e-06
0.435782
1.49426e-06
0.435782
1.55918e-06
0.435782
1.62011e-06
0.435781
1.59011e-06
0.435781
1.45992e-06
0.435781
1.33175e-06
0.435781
1.29108e-06
0.43578
1.29583e-06
0.43578
1.24536e-06
0.43578
1.14072e-06
0.435781
1.09056e-06
0.435781
1.1446e-06
0.435781
1.22779e-06
0.435781
1.25032e-06
0.435781
1.21964e-06
0.435781
1.21255e-06
0.435781
1.27179e-06
0.435781
1.36546e-06
0.435781
1.42663e-06
0.43578
1.40974e-06
0.435781
1.31954e-06
0.435781
1.19934e-06
0.435782
1.09579e-06
0.435782
1.03483e-06
0.435783
1.02217e-06
0.435784
1.04916e-06
0.435785
1.09002e-06
0.435786
1.10101e-06
0.435787
1.04163e-06
0.435788
9.20335e-07
0.435789
8.25806e-07
0.43579
8.80663e-07
0.43579
1.12371e-06
0.435791
1.44282e-06
0.435791
1.66013e-06
0.435791
1.69449e-06
0.435791
1.62555e-06
0.43579
1.59769e-06
0.43579
1.68028e-06
0.435789
1.82575e-06
0.435788
1.94093e-06
0.435787
1.97389e-06
0.435787
1.93277e-06
0.435786
1.84509e-06
0.435786
1.72684e-06
0.435785
1.59875e-06
0.435785
1.51148e-06
0.435785
1.52317e-06
0.435785
1.63461e-06
0.435785
1.75782e-06