/*--------------------------------*- C++ -*----------------------------------*\
| =========                 |                                                 |
| \\      /  F ield         | OpenFOAM: The Open Source CFD Toolbox           |
|  \\    /   O peration     | Version:  2406                                  |
|   \\  /    A nd           | Website:  www.openfoam.com                      |
|    \\/     M anipulation  |                                                 |
\*---------------------------------------------------------------------------*/
FoamFile
{
    version     2.0;
    format      ascii;
    arch        "LSB;label=32;scalar=64";
    class       volScalarField;
    location    "0.45";
    object      p;
}
// * * * * * * * * * * * * * * * * * * * * * * * * * * * * * * * * * * * * * //

dimensions      [1 -1 -2 0 0 0 0];

internalField   nonuniform List<scalar> 
6250
(
1412.11
-960.087
584.01
1723.4
1696.56
1354.26
1230.52
1279.52
1329.36
1328.92
1309.06
1296.63
1292.77
1289.99
1285.09
1279.05
1273.21
1267.78
1262.45
1257.03
1251.56
1246.08
1240.63
1235.19
1229.74
1224.29
1218.84
1213.37
1207.92
1202.46
1197.01
1191.55
1186.1
1180.65
1175.2
1169.75
1164.3
1158.84
1153.38
1147.93
1142.48
1137.03
1131.58
1126.12
1120.67
1115.22
1109.76
1104.3
1098.85
1093.4
1087.95
1082.49
1077.04
1071.58
1066.13
1060.68
1055.23
1049.77
1044.31
1038.86
1033.42
1027.96
1022.51
1017.05
1011.6
1006.15
1000.69
995.237
989.785
984.333
978.879
973.424
967.969
962.515
957.062
951.61
946.158
940.705
935.25
929.794
924.341
918.89
913.439
907.985
902.527
897.072
891.62
886.171
880.72
875.265
869.809
864.354
858.9
853.448
847.997
842.546
837.094
831.639
826.183
820.729
815.276
809.824
804.373
798.92
793.467
788.013
782.559
777.105
771.651
766.198
760.746
755.295
749.844
744.389
738.932
733.475
728.022
722.571
717.12
711.668
706.214
700.759
695.305
689.85
684.396
678.943
673.491
668.038
662.584
657.129
651.676
646.224
640.772
635.318
629.862
624.407
618.953
613.502
608.051
602.598
597.142
591.686
586.231
580.777
575.325
569.873
564.422
558.972
553.52
548.065
542.607
537.149
531.693
526.242
520.793
515.344
509.893
504.44
498.984
493.527
488.069
482.614
477.162
471.713
466.265
460.815
455.362
449.907
444.45
438.993
433.536
428.081
422.63
417.181
411.734
406.284
400.831
395.375
389.918
384.461
379.004
373.548
368.094
362.643
357.194
351.743
346.291
340.836
335.381
329.924
324.467
319.01
313.555
308.104
302.654
297.205
291.755
286.304
280.852
275.4
269.946
264.489
259.031
253.575
248.122
242.672
237.221
231.769
226.317
220.866
215.417
209.966
204.513
199.058
193.603
188.149
182.697
177.244
171.792
166.339
160.887
155.433
149.978
144.52
139.06
133.6
128.139
122.676
117.213
111.749
106.288
100.83
95.3762
89.9245
84.4747
79.0267
73.5809
68.136
62.6912
57.2459
51.7996
46.352
40.9026
35.4506
29.9962
24.541
19.086
13.632
8.17858
2.72613
1412.07
-960.15
583.983
1723.41
1696.56
1354.26
1230.52
1279.52
1329.37
1328.92
1309.06
1296.63
1292.77
1289.98
1285.08
1279.04
1273.21
1267.79
1262.45
1257.04
1251.57
1246.09
1240.63
1235.19
1229.73
1224.28
1218.83
1213.37
1207.92
1202.47
1197.01
1191.56
1186.11
1180.65
1175.2
1169.74
1164.29
1158.84
1153.39
1147.93
1142.48
1137.03
1131.58
1126.12
1120.66
1115.21
1109.76
1104.31
1098.86
1093.4
1087.94
1082.49
1077.04
1071.58
1066.13
1060.68
1055.23
1049.77
1044.32
1038.86
1033.41
1027.96
1022.51
1017.05
1011.6
1006.14
1000.69
995.239
989.784
984.33
978.877
973.426
967.973
962.519
957.064
951.61
946.159
940.708
935.254
929.798
924.343
918.892
913.443
907.99
902.532
897.074
891.62
886.172
880.723
875.27
869.812
864.355
858.902
853.452
848.001
842.548
837.093
831.639
826.186
820.732
815.277
809.824
804.372
798.921
793.469
788.015
782.558
777.103
771.65
766.2
760.75
755.297
749.843
744.387
738.931
733.475
728.022
722.572
717.122
711.67
706.214
700.758
695.303
689.851
684.398
678.945
673.49
668.037
662.584
657.131
651.678
646.225
640.772
635.317
629.862
624.407
618.953
613.502
608.052
602.599
597.144
591.686
586.229
580.775
575.324
569.875
564.425
558.974
553.52
548.064
542.606
537.148
531.692
526.241
520.793
515.345
509.895
504.441
498.984
493.526
488.068
482.613
477.161
471.713
466.266
460.817
455.364
449.907
444.448
438.991
433.535
428.082
422.63
417.181
411.733
406.285
400.833
395.377
389.918
384.459
379.002
373.547
368.094
362.643
357.194
351.744
346.292
340.837
335.38
329.923
324.466
319.01
313.555
308.103
302.653
297.205
291.757
286.306
280.852
275.398
269.943
264.487
259.031
253.574
248.12
242.669
237.22
231.771
226.321
220.869
215.417
209.965
204.513
199.059
193.603
188.148
182.695
177.243
171.792
166.339
160.887
155.434
149.98
144.523
139.063
133.6
128.137
122.675
117.211
111.749
106.287
100.829
95.3739
89.9218
84.4722
79.0251
73.5804
68.1377
62.6948
57.2495
51.8018
46.3525
40.9021
35.4507
29.9975
24.5424
19.0865
13.6313
8.17797
2.72539
1412.08
-960.142
583.984
1723.42
1696.57
1354.27
1230.53
1279.53
1329.38
1328.93
1309.06
1296.62
1292.76
1289.98
1285.08
1279.04
1273.21
1267.79
1262.45
1257.03
1251.56
1246.09
1240.63
1235.19
1229.74
1224.28
1218.83
1213.38
1207.92
1202.47
1197.02
1191.56
1186.1
1180.65
1175.2
1169.74
1164.29
1158.84
1153.39
1147.93
1142.48
1137.03
1131.58
1126.12
1120.67
1115.21
1109.76
1104.31
1098.85
1093.4
1087.94
1082.49
1077.04
1071.59
1066.13
1060.68
1055.22
1049.77
1044.32
1038.87
1033.41
1027.96
1022.51
1017.05
1011.6
1006.14
1000.69
995.241
989.786
984.331
978.876
973.423
967.971
962.519
957.065
951.612
946.158
940.704
935.25
929.797
924.344
918.891
913.437
907.984
902.53
897.075
891.621
886.17
880.718
875.265
869.81
864.355
858.902
853.451
847.999
842.545
837.091
831.637
826.184
820.731
815.277
809.823
804.371
798.919
793.468
788.014
782.558
777.103
771.649
766.199
760.749
755.297
749.841
744.384
738.929
733.476
728.024
722.573
717.121
711.668
706.212
700.756
695.303
689.851
684.399
678.946
673.49
668.035
662.582
657.131
651.679
646.226
640.771
635.316
629.861
624.407
618.954
613.502
608.051
602.599
597.144
591.687
586.229
580.774
575.323
569.875
564.427
558.975
553.519
548.061
542.603
537.147
531.694
526.243
520.795
515.346
509.895
504.44
498.982
493.524
488.068
482.614
477.163
471.714
466.266
460.817
455.364
449.907
444.448
438.989
433.533
428.082
422.633
417.184
411.735
406.284
400.831
395.375
389.917
384.458
379.001
373.547
368.095
362.645
357.195
351.745
346.293
340.838
335.38
329.922
324.464
319.009
313.556
308.104
302.654
297.206
291.757
286.307
280.854
275.398
269.942
264.486
259.032
253.577
248.122
242.669
237.219
231.771
226.322
220.871
215.418
209.964
204.511
199.057
193.604
188.149
182.695
177.243
171.792
166.34
160.888
155.434
149.979
144.522
139.063
133.601
128.137
122.673
117.21
111.748
106.288
100.829
95.3736
89.9222
84.474
79.0277
73.5823
68.1376
62.6934
57.2488
51.8024
46.3533
40.9021
35.4495
29.9959
24.5414
19.0862
13.6311
8.17765
2.7253
1412.08
-960.141
583.98
1723.4
1696.55
1354.25
1230.52
1279.51
1329.37
1328.93
1309.06
1296.63
1292.78
1289.99
1285.08
1279.04
1273.21
1267.79
1262.46
1257.04
1251.56
1246.09
1240.63
1235.19
1229.74
1224.28
1218.83
1213.37
1207.92
1202.46
1197.01
1191.56
1186.1
1180.65
1175.2
1169.75
1164.29
1158.84
1153.38
1147.93
1142.48
1137.02
1131.57
1126.12
1120.67
1115.21
1109.76
1104.3
1098.85
1093.4
1087.95
1082.49
1077.04
1071.59
1066.13
1060.68
1055.22
1049.77
1044.32
1038.87
1033.41
1027.96
1022.5
1017.05
1011.6
1006.14
1000.69
995.237
989.785
984.332
978.879
973.424
967.97
962.517
957.066
951.614
946.16
940.703
935.249
929.797
924.347
918.894
913.439
907.983
902.529
897.077
891.625
886.172
880.719
875.265
869.812
864.358
858.905
853.452
847.999
842.546
837.093
831.639
826.186
820.732
815.278
809.825
804.372
798.92
793.467
788.014
782.559
777.105
771.651
766.199
760.748
755.296
749.841
744.385
738.931
733.478
728.026
722.574
717.12
711.666
706.212
700.758
695.305
689.852
684.399
678.946
673.49
668.035
662.582
657.131
651.68
646.227
640.772
635.315
629.86
624.406
618.955
613.504
608.052
602.599
597.143
591.687
586.231
580.776
575.324
569.875
564.426
558.975
553.519
548.061
542.603
537.147
531.695
526.245
520.796
515.347
509.895
504.439
498.981
493.523
488.067
482.615
477.165
471.717
466.267
460.816
455.362
449.906
444.447
438.989
433.534
428.082
422.633
417.186
411.736
406.284
400.83
395.374
389.916
384.457
379
373.547
368.096
362.646
357.196
351.745
346.292
340.837
335.379
329.92
324.462
319.007
313.555
308.105
302.655
297.206
291.757
286.307
280.854
275.399
269.942
264.484
259.029
253.576
248.123
242.671
237.219
231.77
226.321
220.871
215.42
209.966
204.511
199.057
193.603
188.149
182.696
177.243
171.791
166.34
160.888
155.434
149.979
144.521
139.063
133.601
128.138
122.674
117.21
111.748
106.288
100.83
95.3743
89.9221
84.4734
79.0273
73.5826
68.1381
62.6936
57.2487
51.8026
46.3542
40.9032
35.4501
29.996
24.5412
19.0862
13.6314
8.17789
2.72544
1412.07
-960.152
583.98
1723.42
1696.57
1354.25
1230.52
1279.52
1329.38
1328.93
1309.06
1296.62
1292.77
1289.99
1285.08
1279.05
1273.2
1267.78
1262.45
1257.03
1251.56
1246.09
1240.64
1235.19
1229.74
1224.28
1218.83
1213.37
1207.92
1202.47
1197.01
1191.56
1186.11
1180.65
1175.2
1169.75
1164.29
1158.84
1153.38
1147.93
1142.48
1137.02
1131.57
1126.12
1120.67
1115.21
1109.76
1104.31
1098.85
1093.4
1087.95
1082.49
1077.04
1071.58
1066.13
1060.68
1055.23
1049.77
1044.32
1038.87
1033.41
1027.96
1022.5
1017.05
1011.6
1006.15
1000.69
995.236
989.784
984.333
978.88
973.425
967.97
962.517
957.065
951.614
946.16
940.704
935.249
929.796
924.345
918.894
913.439
907.983
902.528
897.075
891.624
886.172
880.718
875.264
869.811
864.358
858.904
853.45
847.997
842.544
837.092
831.639
826.185
820.731
815.276
809.823
804.371
798.919
793.466
788.012
782.558
777.105
771.651
766.198
760.745
755.293
749.839
744.385
738.932
733.479
728.026
722.573
717.118
711.663
706.21
700.759
695.307
689.854
684.399
678.944
673.489
668.035
662.582
657.131
651.68
646.227
640.772
635.314
629.858
624.405
618.954
613.505
608.054
602.599
597.143
591.686
586.23
580.777
575.325
569.875
564.425
558.973
553.518
548.061
542.603
537.147
531.695
526.246
520.797
515.347
509.894
504.438
498.98
493.523
488.067
482.615
477.166
471.718
466.269
460.816
455.361
449.903
444.446
438.989
433.535
428.083
422.634
417.186
411.737
406.284
400.829
395.371
389.913
384.456
379
373.547
368.097
362.648
357.198
351.746
346.292
340.836
335.378
329.92
324.463
319.007
313.555
308.105
302.657
297.208
291.758
286.307
280.854
275.399
269.943
264.485
259.028
253.574
248.122
242.672
237.222
231.771
226.321
220.871
215.42
209.966
204.512
199.056
193.602
188.148
182.695
177.243
171.791
166.34
160.888
155.435
149.98
144.522
139.062
133.601
128.138
122.674
117.21
111.747
106.287
100.829
95.3746
89.9225
84.4735
79.0275
73.5833
68.1395
62.6948
57.2491
51.8023
46.3539
40.9034
35.4505
29.996
24.5408
19.0856
13.6309
8.17755
2.72524
1412.07
-960.16
583.97
1723.41
1696.57
1354.26
1230.51
1279.51
1329.37
1328.92
1309.06
1296.62
1292.77
1289.98
1285.08
1279.05
1273.21
1267.78
1262.45
1257.04
1251.56
1246.09
1240.64
1235.19
1229.74
1224.28
1218.83
1213.37
1207.92
1202.46
1197.01
1191.56
1186.11
1180.65
1175.19
1169.74
1164.29
1158.84
1153.39
1147.93
1142.48
1137.03
1131.57
1126.12
1120.67
1115.21
1109.76
1104.3
1098.85
1093.4
1087.95
1082.49
1077.04
1071.58
1066.13
1060.68
1055.23
1049.77
1044.32
1038.86
1033.41
1027.96
1022.51
1017.05
1011.6
1006.14
1000.69
995.237
989.785
984.333
978.879
973.424
967.971
962.518
957.065
951.612
946.159
940.705
935.251
929.796
924.343
918.891
913.439
907.985
902.53
897.076
891.623
886.171
880.719
875.265
869.812
864.359
858.905
853.451
847.997
842.544
837.093
831.64
826.187
820.732
815.277
809.824
804.372
798.92
793.467
788.013
782.559
777.105
771.652
766.199
760.745
755.291
749.839
744.387
738.934
733.481
728.027
722.572
717.117
711.662
706.21
700.76
695.309
689.856
684.399
678.942
673.487
668.035
662.584
657.133
651.681
646.227
640.771
635.314
629.858
624.405
618.954
613.505
608.055
602.601
597.144
591.686
586.229
580.777
575.326
569.876
564.425
558.972
553.517
548.06
542.603
537.148
531.697
526.247
520.798
515.347
509.893
504.437
498.98
493.523
488.069
482.617
477.168
471.719
466.269
460.816
455.36
449.902
444.445
438.989
433.536
428.086
422.636
417.187
411.737
406.284
400.827
395.369
389.91
384.454
378.999
373.547
368.097
362.648
357.199
351.747
346.292
340.834
335.376
329.918
324.461
319.006
313.554
308.105
302.657
297.21
291.76
286.307
280.853
275.398
269.942
264.485
259.029
253.574
248.121
242.672
237.223
231.773
226.323
220.871
215.419
209.966
204.512
199.057
193.602
188.148
182.695
177.243
171.791
166.34
160.888
155.435
149.98
144.522
139.062
133.6
128.137
122.674
117.21
111.747
106.287
100.829
95.375
89.9235
84.4745
79.0279
73.5833
68.1397
62.6956
57.2501
51.8028
46.3539
40.9031
35.4505
29.9961
24.5407
19.0854
13.6308
8.17756
2.7253
1412.08
-960.16
583.962
1723.4
1696.56
1354.25
1230.51
1279.51
1329.37
1328.93
1309.06
1296.63
1292.77
1289.99
1285.08
1279.05
1273.21
1267.78
1262.45
1257.04
1251.56
1246.09
1240.63
1235.19
1229.74
1224.29
1218.83
1213.37
1207.92
1202.47
1197.01
1191.55
1186.11
1180.65
1175.2
1169.74
1164.29
1158.84
1153.39
1147.93
1142.48
1137.03
1131.57
1126.12
1120.67
1115.21
1109.76
1104.31
1098.85
1093.4
1087.94
1082.49
1077.04
1071.59
1066.13
1060.68
1055.23
1049.77
1044.32
1038.86
1033.41
1027.96
1022.51
1017.05
1011.6
1006.14
1000.69
995.239
989.788
984.334
978.878
973.423
967.97
962.518
957.066
951.612
946.159
940.706
935.252
929.797
924.343
918.89
913.439
907.986
902.532
897.076
891.622
886.17
880.718
875.266
869.813
864.359
858.905
853.451
847.997
842.544
837.092
831.639
826.186
820.732
815.277
809.823
804.37
798.918
793.466
788.013
782.56
777.105
771.651
766.197
760.743
755.29
749.838
744.387
738.935
733.481
728.025
722.569
717.115
711.662
706.211
700.761
695.309
689.855
684.399
678.941
673.486
668.034
662.584
657.134
651.682
646.226
640.769
635.312
629.857
624.405
618.955
613.506
608.055
602.601
597.144
591.686
586.23
580.776
575.326
569.877
564.425
558.971
553.516
548.059
542.603
537.15
531.698
526.248
520.798
515.347
509.892
504.435
498.979
493.523
488.07
482.619
477.169
471.72
466.268
460.815
455.359
449.901
444.444
438.989
433.537
428.087
422.638
417.188
411.736
406.282
400.825
395.367
389.908
384.452
378.999
373.549
368.1
362.65
357.2
351.747
346.292
340.834
335.375
329.916
324.46
319.007
313.556
308.106
302.658
297.21
291.761
286.309
280.854
275.397
269.94
264.484
259.029
253.575
248.122
242.672
237.223
231.774
226.324
220.873
215.42
209.966
204.512
199.057
193.601
188.147
182.694
177.242
171.791
166.34
160.887
155.434
149.98
144.522
139.063
133.6
128.137
122.674
117.21
111.748
106.287
100.829
95.3749
89.9238
84.4753
79.0288
73.5838
68.1398
62.6958
57.2506
51.8035
46.3542
40.9031
35.4502
29.9959
24.5406
19.0852
13.6305
8.17731
2.72517
1412.08
-960.153
583.967
1723.4
1696.56
1354.26
1230.52
1279.51
1329.37
1328.93
1309.05
1296.62
1292.77
1289.98
1285.07
1279.04
1273.21
1267.78
1262.45
1257.04
1251.56
1246.09
1240.63
1235.19
1229.74
1224.28
1218.83
1213.37
1207.92
1202.47
1197.01
1191.56
1186.1
1180.65
1175.2
1169.74
1164.29
1158.84
1153.39
1147.93
1142.48
1137.03
1131.57
1126.12
1120.67
1115.21
1109.76
1104.31
1098.85
1093.4
1087.95
1082.49
1077.04
1071.59
1066.13
1060.68
1055.23
1049.77
1044.32
1038.86
1033.41
1027.96
1022.51
1017.05
1011.6
1006.14
1000.69
995.24
989.787
984.333
978.877
973.423
967.969
962.517
957.066
951.613
946.16
940.705
935.25
929.796
924.343
918.891
913.439
907.986
902.532
897.077
891.622
886.169
880.717
875.266
869.813
864.359
858.905
853.451
847.997
842.544
837.092
831.639
826.186
820.733
815.278
809.824
804.37
798.917
793.466
788.014
782.562
777.107
771.651
766.195
760.742
755.29
749.839
744.389
738.937
733.481
728.024
722.567
717.113
711.663
706.213
700.763
695.31
689.855
684.398
678.941
673.486
668.034
662.585
657.135
651.682
646.226
640.768
635.311
629.857
624.406
618.957
613.507
608.055
602.6
597.143
591.686
586.231
580.777
575.327
569.876
564.425
558.971
553.515
548.059
542.604
537.151
531.7
526.249
520.798
515.346
509.891
504.435
498.978
493.524
488.071
482.621
477.171
471.721
466.268
460.813
455.357
449.9
444.444
438.99
433.538
428.089
422.64
417.189
411.736
406.28
400.822
395.364
389.907
384.451
378.999
373.55
368.101
362.652
357.201
351.747
346.291
340.832
335.373
329.914
324.459
319.006
313.556
308.108
302.66
297.211
291.761
286.309
280.854
275.397
269.94
264.483
259.028
253.575
248.123
242.673
237.224
231.775
226.325
220.874
215.421
209.966
204.511
199.056
193.601
188.147
182.694
177.242
171.791
166.34
160.888
155.434
149.979
144.522
139.063
133.601
128.137
122.673
117.21
111.748
106.288
100.83
95.3753
89.9241
84.4759
79.0298
73.5849
68.1405
62.6961
57.2509
51.8039
46.3546
40.9032
35.4501
29.9956
24.5403
19.085
13.6303
8.17719
2.72516
1412.07
-960.163
583.966
1723.4
1696.56
1354.26
1230.51
1279.5
1329.36
1328.93
1309.06
1296.62
1292.77
1289.99
1285.08
1279.05
1273.21
1267.78
1262.45
1257.04
1251.56
1246.09
1240.64
1235.19
1229.74
1224.28
1218.83
1213.37
1207.92
1202.47
1197.02
1191.56
1186.1
1180.65
1175.2
1169.74
1164.29
1158.84
1153.39
1147.93
1142.48
1137.03
1131.57
1126.12
1120.67
1115.21
1109.76
1104.3
1098.85
1093.4
1087.95
1082.49
1077.04
1071.58
1066.13
1060.68
1055.23
1049.77
1044.32
1038.86
1033.41
1027.96
1022.51
1017.05
1011.6
1006.15
1000.69
995.24
989.786
984.332
978.878
973.424
967.97
962.517
957.066
951.615
946.161
940.706
935.249
929.796
924.344
918.893
913.441
907.986
902.531
897.077
891.623
886.17
880.717
875.265
869.813
864.36
858.906
853.451
847.997
842.543
837.091
831.639
826.187
820.733
815.278
809.823
804.368
798.916
793.465
788.015
782.562
777.107
771.65
766.193
760.74
755.289
749.84
744.389
738.936
733.48
728.022
722.566
717.113
711.663
706.214
700.764
695.31
689.853
684.396
678.939
673.486
668.035
662.586
657.135
651.682
646.225
640.767
635.31
629.857
624.406
618.957
613.508
608.055
602.599
597.142
591.686
586.231
580.779
575.327
569.876
564.424
558.97
553.515
548.059
542.605
537.152
531.701
526.25
520.798
515.345
509.89
504.434
498.979
493.525
488.073
482.623
477.173
471.721
466.268
460.812
455.355
449.899
444.444
438.991
433.54
428.091
422.641
417.189
411.735
406.278
400.82
395.362
389.905
384.451
379
373.551
368.103
362.654
357.202
351.747
346.289
340.83
335.371
329.913
324.458
319.006
313.556
308.109
302.661
297.212
291.762
286.309
280.854
275.397
269.94
264.482
259.027
253.575
248.124
242.674
237.225
231.776
226.326
220.874
215.421
209.967
204.511
199.055
193.6
188.146
182.693
177.241
171.79
166.339
160.888
155.434
149.979
144.522
139.062
133.601
128.138
122.674
117.21
111.748
106.288
100.831
95.3761
89.9247
84.4763
79.0303
73.5856
68.1413
62.6966
57.2511
51.8039
46.3548
40.9033
35.45
29.9953
24.54
19.0847
13.6301
8.17699
2.72508
1412.08
-960.159
583.96
1723.39
1696.55
1354.26
1230.52
1279.52
1329.37
1328.93
1309.07
1296.63
1292.76
1289.98
1285.08
1279.04
1273.21
1267.78
1262.45
1257.03
1251.56
1246.09
1240.63
1235.19
1229.74
1224.28
1218.83
1213.38
1207.92
1202.46
1197.01
1191.56
1186.11
1180.65
1175.2
1169.74
1164.29
1158.84
1153.39
1147.93
1142.48
1137.02
1131.57
1126.12
1120.67
1115.22
1109.76
1104.3
1098.85
1093.4
1087.95
1082.49
1077.04
1071.58
1066.13
1060.68
1055.23
1049.77
1044.32
1038.86
1033.41
1027.96
1022.51
1017.05
1011.6
1006.15
1000.69
995.238
989.784
984.332
978.878
973.424
967.97
962.517
957.065
951.614
946.161
940.705
935.249
929.795
924.344
918.893
913.44
907.986
902.531
897.076
891.623
886.17
880.716
875.264
869.813
864.361
858.907
853.451
847.996
842.542
837.09
831.64
826.189
820.734
815.278
809.821
804.366
798.915
793.466
788.016
782.563
777.107
771.649
766.192
760.739
755.29
749.841
744.39
738.935
733.478
728.021
722.566
717.114
711.664
706.215
700.764
695.31
689.852
684.394
678.939
673.487
668.037
662.587
657.135
651.681
646.224
640.767
635.311
629.858
624.407
618.958
613.507
608.054
602.599
597.142
591.686
586.232
580.78
575.328
569.876
564.424
558.97
553.515
548.06
542.606
537.154
531.702
526.251
520.798
515.344
509.889
504.433
498.979
493.526
488.075
482.624
477.174
471.721
466.267
460.81
455.354
449.898
444.444
438.992
433.542
428.093
422.642
417.189
411.734
406.276
400.817
395.359
389.904
384.451
379.001
373.552
368.104
362.655
357.202
351.746
346.288
340.828
335.369
329.912
324.457
319.006
313.557
308.11
302.663
297.214
291.763
286.309
280.853
275.397
269.939
264.483
259.028
253.575
248.124
242.675
237.227
231.777
226.327
220.875
215.422
209.967
204.511
199.055
193.6
188.146
182.693
177.241
171.79
166.339
160.887
155.434
149.979
144.522
139.062
133.601
128.138
122.674
117.211
111.748
106.288
100.831
95.3771
89.9257
84.4771
79.0308
73.5862
68.142
62.6974
57.2515
51.8041
46.3548
40.9033
35.4499
29.9951
24.5397
19.0844
13.6299
8.17684
2.72506
1412.08
-960.158
583.968
1723.4
1696.56
1354.26
1230.52
1279.51
1329.36
1328.92
1309.06
1296.63
1292.76
1289.98
1285.08
1279.04
1273.21
1267.78
1262.45
1257.04
1251.56
1246.09
1240.63
1235.19
1229.74
1224.28
1218.83
1213.38
1207.92
1202.46
1197.01
1191.56
1186.11
1180.65
1175.2
1169.75
1164.29
1158.84
1153.39
1147.94
1142.48
1137.03
1131.57
1126.12
1120.67
1115.21
1109.76
1104.31
1098.85
1093.4
1087.95
1082.49
1077.04
1071.58
1066.13
1060.68
1055.23
1049.77
1044.32
1038.86
1033.41
1027.96
1022.51
1017.05
1011.6
1006.15
1000.69
995.237
989.785
984.333
978.88
973.425
967.971
962.517
957.065
951.613
946.16
940.706
935.251
929.798
924.345
918.892
913.439
907.986
902.532
897.078
891.624
886.17
880.716
875.264
869.814
864.362
858.908
853.451
847.994
842.541
837.09
831.642
826.19
820.735
815.277
809.819
804.365
798.915
793.467
788.017
782.563
777.106
771.648
766.192
760.739
755.29
749.842
744.39
738.934
733.477
728.02
722.566
717.115
711.665
706.216
700.763
695.308
689.851
684.393
678.939
673.487
668.038
662.588
657.135
651.68
646.223
640.766
635.312
629.86
624.409
618.958
613.506
608.053
602.598
597.142
591.686
586.233
580.78
575.329
569.876
564.423
558.969
553.514
548.06
542.607
537.155
531.703
526.251
520.797
515.343
509.888
504.433
498.98
493.528
488.077
482.626
477.174
471.721
466.265
460.809
455.352
449.897
444.444
438.994
433.545
428.095
422.643
417.189
411.732
406.274
400.815
395.357
389.902
384.451
379.002
373.554
368.105
362.655
357.202
351.746
346.286
340.826
335.367
329.91
324.457
319.006
313.558
308.111
302.664
297.215
291.764
286.309
280.853
275.395
269.938
264.482
259.028
253.575
248.125
242.676
237.228
231.779
226.328
220.876
215.422
209.967
204.511
199.055
193.599
188.145
182.692
177.24
171.789
166.338
160.887
155.434
149.979
144.522
139.062
133.601
128.138
122.674
117.211
111.749
106.289
100.832
95.3777
89.9266
84.4781
79.0317
73.5868
68.1425
62.6979
57.252
51.8043
46.3547
40.9031
35.4497
29.9949
24.5394
19.0841
13.6296
8.17664
2.72501
1412.08
-960.161
583.96
1723.39
1696.55
1354.25
1230.51
1279.51
1329.37
1328.93
1309.06
1296.63
1292.77
1289.99
1285.08
1279.04
1273.21
1267.78
1262.45
1257.04
1251.57
1246.09
1240.63
1235.18
1229.74
1224.28
1218.83
1213.37
1207.92
1202.47
1197.01
1191.56
1186.1
1180.65
1175.2
1169.75
1164.29
1158.84
1153.39
1147.93
1142.48
1137.03
1131.58
1126.12
1120.67
1115.21
1109.76
1104.31
1098.85
1093.4
1087.95
1082.49
1077.04
1071.58
1066.13
1060.68
1055.23
1049.77
1044.32
1038.86
1033.41
1027.96
1022.51
1017.05
1011.6
1006.14
1000.69
995.236
989.786
984.334
978.88
973.425
967.97
962.517
957.065
951.612
946.159
940.706
935.253
929.799
924.344
918.89
913.437
907.986
902.534
897.08
891.624
886.168
880.714
875.264
869.814
864.363
858.907
853.449
847.992
842.54
837.091
831.643
826.191
820.734
815.275
809.817
804.364
798.916
793.469
788.018
782.563
777.104
771.647
766.192
760.741
755.291
749.842
744.389
738.933
733.475
728.019
722.566
717.116
711.667
706.216
700.762
695.306
689.849
684.393
678.94
673.488
668.038
662.587
657.134
651.679
646.222
640.767
635.313
629.861
624.41
618.958
613.505
608.051
602.596
597.142
591.687
586.234
580.781
575.329
569.876
564.423
558.968
553.514
548.061
542.609
537.156
531.704
526.251
520.797
515.342
509.887
504.433
498.98
493.53
488.079
482.628
477.175
471.72
466.264
460.807
455.351
449.897
444.445
438.995
433.546
428.096
422.644
417.188
411.73
406.271
400.812
395.355
389.902
384.451
379.003
373.556
368.107
362.656
357.202
351.745
346.285
340.825
335.365
329.909
324.456
319.007
313.559
308.112
302.665
297.216
291.764
286.31
280.853
275.395
269.938
264.482
259.028
253.576
248.126
242.677
237.229
231.78
226.329
220.877
215.422
209.967
204.511
199.055
193.599
188.144
182.691
177.24
171.789
166.338
160.886
155.434
149.979
144.522
139.063
133.601
128.138
122.675
117.211
111.75
106.29
100.833
95.3784
89.9274
84.479
79.0326
73.5875
68.143
62.6983
57.2523
51.8045
46.3547
40.9029
35.4494
29.9946
24.5391
19.0838
13.6293
8.17644
2.72499
1412.07
-960.161
583.962
1723.39
1696.56
1354.26
1230.52
1279.51
1329.37
1328.92
1309.05
1296.62
1292.77
1289.98
1285.08
1279.05
1273.21
1267.78
1262.45
1257.04
1251.56
1246.09
1240.63
1235.18
1229.74
1224.28
1218.83
1213.38
1207.92
1202.47
1197.01
1191.56
1186.11
1180.65
1175.19
1169.74
1164.29
1158.84
1153.39
1147.93
1142.48
1137.02
1131.57
1126.12
1120.67
1115.21
1109.76
1104.31
1098.85
1093.4
1087.95
1082.49
1077.04
1071.58
1066.13
1060.68
1055.23
1049.77
1044.32
1038.86
1033.41
1027.96
1022.51
1017.05
1011.6
1006.14
1000.69
995.238
989.786
984.334
978.881
973.426
967.971
962.517
957.064
951.611
946.16
940.708
935.255
929.799
924.342
918.888
913.437
907.988
902.537
897.081
891.623
886.166
880.714
875.265
869.816
864.364
858.906
853.448
847.992
842.541
837.093
831.644
826.191
820.733
815.274
809.817
804.366
798.918
793.469
788.018
782.562
777.103
771.646
766.193
760.742
755.293
749.841
744.387
738.931
733.475
728.02
722.567
717.117
711.667
706.215
700.76
695.304
689.848
684.394
678.941
673.49
668.038
662.586
657.133
651.678
646.223
640.768
635.315
629.862
624.41
618.958
613.504
608.05
602.595
597.141
591.688
586.235
580.783
575.329
569.876
564.422
558.968
553.515
548.062
542.61
537.158
531.705
526.251
520.796
515.341
509.886
504.433
498.982
493.531
488.081
482.629
477.175
471.72
466.263
460.806
455.35
449.897
444.446
438.997
433.548
428.097
422.644
417.187
411.728
406.269
400.81
395.354
389.901
384.452
379.004
373.557
368.108
362.657
357.201
351.743
346.283
340.822
335.364
329.908
324.455
319.007
313.56
308.114
302.666
297.216
291.764
286.309
280.852
275.395
269.937
264.481
259.028
253.577
248.127
242.678
237.23
231.781
226.33
220.877
215.423
209.967
204.51
199.054
193.598
188.144
182.691
177.239
171.788
166.338
160.886
155.433
149.979
144.522
139.062
133.601
128.138
122.675
117.212
111.75
106.291
100.834
95.3794
89.9283
84.4799
79.0335
73.5884
68.1437
62.6986
57.2525
51.8046
46.3546
40.9027
35.4491
29.9942
24.5388
19.0835
13.6291
8.17623
2.72495
1412.08
-960.155
583.972
1723.4
1696.55
1354.25
1230.51
1279.51
1329.37
1328.93
1309.06
1296.62
1292.77
1289.98
1285.08
1279.04
1273.2
1267.78
1262.45
1257.03
1251.56
1246.09
1240.64
1235.19
1229.74
1224.28
1218.83
1213.37
1207.92
1202.46
1197.01
1191.56
1186.11
1180.65
1175.2
1169.74
1164.29
1158.84
1153.39
1147.93
1142.48
1137.03
1131.57
1126.12
1120.67
1115.22
1109.76
1104.31
1098.85
1093.4
1087.95
1082.49
1077.04
1071.58
1066.13
1060.68
1055.23
1049.77
1044.32
1038.87
1033.41
1027.96
1022.51
1017.05
1011.6
1006.14
1000.69
995.237
989.785
984.333
978.881
973.427
967.971
962.515
957.061
951.611
946.162
940.71
935.254
929.796
924.339
918.887
913.438
907.99
902.538
897.081
891.621
886.165
880.714
875.266
869.817
864.363
858.905
853.446
847.991
842.542
837.094
831.644
826.189
820.731
815.272
809.818
804.367
798.919
793.469
788.016
782.559
777.102
771.646
766.194
760.744
755.293
749.84
744.385
738.93
733.475
728.021
722.569
717.118
711.666
706.213
700.758
695.303
689.848
684.395
678.942
673.49
668.038
662.585
657.131
651.677
646.223
640.77
635.317
629.863
624.41
618.956
613.502
608.048
602.595
597.142
591.689
586.237
580.784
575.33
569.875
564.421
558.968
553.515
548.063
542.611
537.159
531.705
526.25
520.795
515.34
509.886
504.434
498.983
493.533
488.082
482.63
477.175
471.719
466.261
460.804
455.349
449.897
444.447
438.999
433.549
428.098
422.644
417.186
411.727
406.267
400.808
395.353
389.901
384.453
379.006
373.558
368.109
362.657
357.201
351.742
346.281
340.821
335.362
329.907
324.456
319.008
313.561
308.115
302.668
297.218
291.765
286.309
280.852
275.394
269.937
264.482
259.028
253.577
248.128
242.68
237.232
231.782
226.331
220.878
215.423
209.967
204.51
199.054
193.598
188.143
182.69
177.239
171.788
166.337
160.886
155.433
149.979
144.522
139.062
133.601
128.138
122.675
117.212
111.751
106.291
100.834
95.3804
89.9293
84.4807
79.0343
73.5891
68.1443
62.699
57.2526
51.8045
46.3545
40.9024
35.4487
29.9939
24.5384
19.0832
13.6288
8.17603
2.72492
1412.07
-960.167
583.962
1723.39
1696.55
1354.25
1230.51
1279.51
1329.37
1328.93
1309.06
1296.63
1292.77
1289.98
1285.08
1279.05
1273.21
1267.78
1262.45
1257.04
1251.56
1246.09
1240.64
1235.19
1229.74
1224.29
1218.83
1213.38
1207.92
1202.47
1197.01
1191.55
1186.1
1180.65
1175.2
1169.74
1164.29
1158.84
1153.39
1147.93
1142.48
1137.03
1131.57
1126.12
1120.67
1115.21
1109.76
1104.3
1098.85
1093.4
1087.95
1082.49
1077.04
1071.58
1066.13
1060.68
1055.23
1049.77
1044.32
1038.87
1033.41
1027.96
1022.51
1017.05
1011.6
1006.15
1000.69
995.236
989.784
984.334
978.883
973.428
967.97
962.513
957.061
951.613
946.164
940.712
935.253
929.794
924.338
918.888
913.441
907.992
902.538
897.079
891.62
886.165
880.716
875.268
869.818
864.362
858.903
853.446
847.993
842.543
837.095
831.643
826.187
820.73
815.273
809.82
804.37
798.92
793.468
788.013
782.558
777.102
771.648
766.196
760.745
755.293
749.839
744.384
738.929
733.475
728.023
722.571
717.118
711.665
706.21
700.756
695.302
689.849
684.396
678.944
673.491
668.037
662.583
657.13
651.676
646.224
640.771
635.318
629.864
624.41
618.955
613.501
608.047
602.595
597.143
591.691
586.238
580.784
575.33
569.875
564.421
558.968
553.516
548.065
542.613
537.16
531.706
526.25
520.794
515.339
509.886
504.434
498.985
493.535
488.084
482.631
477.175
471.718
466.26
460.803
455.349
449.897
444.448
439
433.551
428.098
422.643
417.185
411.725
406.265
400.807
395.352
389.902
384.454
379.007