/*--------------------------------*- C++ -*----------------------------------*\
| =========                 |                                                 |
| \\      /  F ield         | OpenFOAM: The Open Source CFD Toolbox           |
|  \\    /   O peration     | Version:  2406                                  |
|   \\  /    A nd           | Website:  www.openfoam.com                      |
|    \\/     M anipulation  |                                                 |
\*---------------------------------------------------------------------------*/
FoamFile
{
    version     2.0;
    format      ascii;
    arch        "LSB;label=32;scalar=64";
    class       surfaceScalarField;
    location    "0.45";
    object      phi;
}
// * * * * * * * * * * * * * * * * * * * * * * * * * * * * * * * * * * * * * //

dimensions      [0 3 -1 0 0 0 0];

oriented        oriented;

internalField   nonuniform List<scalar> 
12225
(
0.43634
2.90618e-06
0.436333
7.57226e-06
0.436324
8.45534e-06
0.436318
6.612e-06
0.436311
6.3929e-06
0.436305
6.54087e-06
0.436298
6.64421e-06
0.436293
5.70521e-06
0.436289
4.01224e-06
0.436285
3.94657e-06
0.43628
4.27398e-06
0.436276
4.25352e-06
0.436272
4.56118e-06
0.436266
5.14193e-06
0.436261
5.66003e-06
0.436255
5.6417e-06
0.43625
4.93131e-06
0.436246
4.32328e-06
0.436242
4.16859e-06
0.436238
3.88179e-06
0.436234
3.59387e-06
0.43623
3.77454e-06
0.436226
4.1016e-06
0.436222
4.38204e-06
0.436217
5.11351e-06
0.436211
5.94381e-06
0.436205
5.97281e-06
0.4362
5.28029e-06
0.436195
4.77196e-06
0.43619
4.46786e-06
0.436186
4.18333e-06
0.436182
3.94117e-06
0.436179
3.69982e-06
0.436175
3.62805e-06
0.436171
3.8283e-06
0.436167
4.18404e-06
0.436162
4.49447e-06
0.436158
4.48328e-06
0.436154
4.30125e-06
0.436149
4.48838e-06
0.436144
5.08379e-06
0.436139
5.51587e-06
0.436133
5.61677e-06
0.436127
5.84983e-06
0.436121
6.39327e-06
0.436114
6.80373e-06
0.436107
6.71244e-06
0.436101
6.25271e-06
0.436095
5.71915e-06
0.43609
5.39915e-06
0.436084
5.45473e-06
0.436079
5.66933e-06
0.436073
5.65047e-06
0.436068
5.38006e-06
0.436062
5.16065e-06
0.436057
5.10973e-06
0.436052
5.03285e-06
0.436047
4.91825e-06
0.436042
5.07375e-06
0.436037
5.58149e-06
0.436031
6.03211e-06
0.436025
6.02418e-06
0.436019
5.68731e-06
0.436014
5.43637e-06
0.436008
5.40248e-06
0.436003
5.38914e-06
0.435997
5.30007e-06
0.435992
5.3003e-06
0.435987
5.51054e-06
0.435981
5.75077e-06
0.435975
5.73136e-06
0.43597
5.41139e-06
0.435965
5.05149e-06
0.43596
4.90586e-06
0.435955
4.94446e-06
0.43595
4.91929e-06
0.435945
4.66321e-06
0.435941
4.26891e-06
0.435937
3.96242e-06
0.435933
3.83066e-06
0.43593
3.72578e-06
0.435926
3.44742e-06
0.435923
2.97901e-06
0.435921
2.53885e-06
0.435918
2.36684e-06
0.435916
2.42898e-06
0.435913
2.42844e-06
0.435911
2.15106e-06
0.435909
1.70151e-06
0.435908
1.3784e-06
0.435907
1.35442e-06
0.435905
1.4308e-06
0.435904
1.29958e-06
0.435903
9.74742e-07
0.435902
6.50926e-07
0.435902
5.31019e-07
0.435901
6.71006e-07
0.4359
7.53243e-07
0.4359
6.49076e-07
0.435899
4.63365e-07
0.435899
3.62577e-07
0.435899
4.36193e-07
0.435898
5.06391e-07
0.435898
4.38059e-07
0.435897
2.95063e-07
0.435897
2.2545e-07
0.435897
3.43386e-07
0.435896
5.29323e-07
0.435896
5.49757e-07
0.435895
3.39856e-07
0.435895
1.05096e-07
0.435895
6.75766e-08
0.435895
2.36526e-07
0.435894
4.32039e-07
0.435894
4.83262e-07
0.435894
4.01476e-07
0.435893
2.96887e-07
0.435893
2.12287e-07
0.435893
1.55011e-07
0.435893
1.44849e-07
0.435893
1.5816e-07
0.435892
2.14875e-07
0.435892
2.5811e-07
0.435892
2.18849e-07
0.435892
1.13656e-07
0.435892
1.11667e-07
0.435892
1.48083e-07
0.435891
1.6947e-07
0.435891
1.36137e-07
0.435891
5.22468e-08
0.435891
2.48797e-09
0.435891
-2.14252e-08
0.435891
-1.89036e-08
0.435891
5.92244e-09
0.435891
8.77718e-08
0.435891
1.31198e-07
0.435891
1.39893e-07
0.435891
6.17579e-09
0.435891
-1.37736e-07
0.435891
-2.13612e-07
0.435891
-1.22797e-07
0.435891
2.88129e-08
0.435891
1.13815e-07
0.435891
8.74506e-08
0.435891
-5.29721e-08
0.435891
-1.9033e-07
0.435892
-2.70248e-07
0.435892
-3.35431e-07
0.435892
-4.18761e-07
0.435893
-4.96258e-07
0.435893
-4.80618e-07
0.435894
-3.68765e-07
0.435894
-1.97752e-07
0.435894
-1.00606e-07
0.435894
-2.53312e-07
0.435895
-5.53515e-07
0.435896
-8.1913e-07
0.435897
-8.99701e-07
0.435897
-7.97988e-07
0.435898
-6.34674e-07
0.435898
-4.87441e-07
0.435899
-3.80626e-07
0.435899
-3.19631e-07
0.435899
-3.4342e-07
0.4359
-4.96099e-07
0.435901
-7.26525e-07
0.435902
-8.81959e-07
0.435902
-8.36742e-07
0.435903
-6.39494e-07
0.435904
-4.72494e-07
0.435904
-4.81201e-07
0.435905
-6.40679e-07
0.435905
-8.10219e-07
0.435906
-9.30554e-07
0.435907
-1.0715e-06
0.435909
-1.3235e-06
0.43591
-1.66401e-06
0.435912
-1.9351e-06
0.435914
-1.99578e-06
0.435916
-1.84595e-06
0.435918
-1.59583e-06
0.435919
-1.3691e-06
0.43592
-1.23601e-06
0.435922
-1.21499e-06
0.435923
-1.2789e-06
0.435924
-1.35383e-06
0.435926
-1.34235e-06
0.435927
-1.19086e-06
0.435928
-9.41824e-07
0.435928
-6.90823e-07
0.435929
-5.18833e-07
0.435929
-3.85209e-07
0.43593
-2.54715e-07
0.43593
-1.4338e-07
0.43593
-1.02025e-07
0.43593
-1.74571e-07
0.43593
-2.64054e-07
0.435931
-3.02054e-07
0.435931
-2.32215e-07
0.435931
-8.10933e-08
0.435931
1.01065e-07
0.43593
3.20566e-07
0.43593
5.2728e-07
0.435929
7.07733e-07
0.435928
8.22955e-07
0.435928
8.18606e-07
0.435927
6.82572e-07
0.435926
5.04352e-07
0.435926
3.67705e-07
0.435926
3.19384e-07
0.435925
2.82625e-07
0.435925
1.19421e-07
0.435925
-1.13404e-08
0.435925
-6.83489e-09
0.435925
1.46999e-07
0.435925
3.42928e-07
0.435924
4.56941e-07
0.435924
4.48463e-07
0.435924
3.8363e-07
0.435923
3.46783e-07
0.435923
3.39901e-07
0.435923
2.92946e-07
0.435922
1.67456e-07
0.435922
2.32471e-08
0.435922
-5.40709e-08
0.435923
-7.9911e-08
0.435923
-8.88561e-08
0.435923
-1.0103e-07
0.435923
-7.25549e-08
0.435923
1.07226e-07
0.435922
2.67935e-07
0.435922
3.54186e-07
0.435922
3.56069e-07
0.435921
3.33026e-07
0.435921
4.27009e-07
0.43592
6.03728e-07
0.43592
6.80226e-07
0.435919
5.39399e-07
0.435919
2.3645e-07
0.435919
-1.37738e-07
0.435919
-3.26684e-07
0.43592
-3.11859e-07
0.43592
-2.15777e-07
0.43592
-1.7118e-07
0.43592
-2.24952e-07
0.435921
-3.03537e-07
0.435921
-3.35868e-07
0.435921
-3.04782e-07
0.435922
-3.33834e-07
-2.71737e-07
0.436351
-8.71541e-07
0.436358
8.83129e-08
0.436365
1.77347e-06
0.436369
2.09121e-06
0.436374
1.87143e-06
0.436379
1.80839e-06
0.436384
1.61057e-06
0.436387
2.07214e-06
0.436389
2.42265e-06
0.436391
1.95745e-06
0.436393
2.19368e-06
0.436394
2.83471e-06
0.436396
2.65687e-06
0.436399
2.02059e-06
0.436403
1.94359e-06
0.436406
2.51384e-06
0.436408
2.80383e-06
0.43641
2.5783e-06
0.436411
2.87436e-06
0.436412
3.5491e-06
0.436412
3.46047e-06
0.436413
3.01904e-06
0.436414
3.02777e-06
0.436415
2.93425e-06
0.436418
2.64126e-06
0.436421
2.68227e-06
0.436424
3.16353e-06
0.436426
3.3354e-06
0.436427
2.85479e-06
0.43643
2.15949e-06
0.436432
1.57548e-06
0.436435
1.33403e-06
0.436437
1.6215e-06
0.436439
2.11612e-06
0.43644
2.33701e-06
0.436442
2.45414e-06
0.436443
2.80009e-06
0.436445
3.07601e-06
0.436446
2.79066e-06
0.436449
2.1775e-06
0.436452
1.95087e-06
0.436455
2.30159e-06
0.436458
2.62053e-06
0.436462
2.38059e-06
0.436466
1.84699e-06
0.436471
1.57427e-06
0.436476
1.83921e-06
0.43648
2.35045e-06
0.436483
2.58729e-06
0.436486
2.40954e-06
0.43649
2.07427e-06
0.436493
1.88375e-06
0.436497
1.81842e-06
0.436501
1.83341e-06
0.436504
2.14878e-06
0.436506
2.81598e-06
0.436508
3.31913e-06
0.43651
3.04081e-06
0.436513
2.12587e-06
0.436517
1.37402e-06
0.436522
1.30892e-06
0.436526
1.72831e-06
0.436529
2.15924e-06
0.436532
2.454e-06
0.436535
2.69514e-06
0.436538
2.85311e-06
0.43654
2.83237e-06
0.436543
2.68714e-06
0.436546
2.59859e-06
0.436549
2.64056e-06
0.436552
2.72334e-06
0.436554
2.71165e-06
0.436557
2.54823e-06
0.43656
2.27751e-06
0.436562
2.0191e-06
0.436565
1.90433e-06
0.436568
1.96789e-06
0.43657
2.10969e-06
0.436572
2.19511e-06
0.436574
2.20122e-06
0.436575
2.24624e-06
0.436576
2.44048e-06
0.436576
2.71242e-06
0.436576
2.84824e-06
0.436576
2.729e-06
0.436576
2.47569e-06
0.436576
2.31545e-06
0.436576
2.32253e-06
0.436575
2.35951e-06
0.436574
2.27703e-06
0.436573
2.09382e-06
0.436573
1.95294e-06
0.436572
1.94736e-06
0.436571
2.03372e-06
0.43657
2.09155e-06
0.436568
2.08845e-06
0.436567
2.12017e-06
0.436565
2.21213e-06
0.436564
2.2806e-06
0.436562
2.22617e-06
0.43656
2.07097e-06
0.436559
1.96857e-06
0.436557
2.00348e-06
0.436555
2.10237e-06
0.436554
2.13152e-06
0.436552
2.05494e-06
0.43655
1.99543e-06
0.436549
2.08095e-06
0.436547
2.27411e-06
0.436545
2.40568e-06
0.436543
2.39608e-06
0.43654
2.36736e-06
0.436538
2.49495e-06
0.436536
2.75894e-06
0.436533
2.93163e-06
0.436531
2.85017e-06
0.436528
2.61071e-06
0.436526
2.44561e-06
0.436524
2.48523e-06
0.436521
2.66294e-06
0.436519
2.82175e-06
0.436516
2.8622e-06
0.436514
2.7741e-06
0.436511
2.59909e-06
0.436509
2.41418e-06
0.436507
2.32779e-06
0.436504
2.36778e-06
0.436502
2.46495e-06
0.4365
2.49497e-06
0.436497
2.39906e-06
0.436495
2.2439e-06
0.436493
2.13235e-06
0.436491
2.12207e-06
0.436489
2.2018e-06
0.436486
2.33836e-06
0.436484
2.46727e-06
0.436482
2.53155e-06
0.436479
2.47497e-06
0.436477
2.34727e-06
0.436474
2.24489e-06
0.436472
2.26866e-06
0.43647
2.39321e-06
0.436467
2.50074e-06
0.436465
2.47126e-06
0.436462
2.27476e-06
0.43646
2.01275e-06
0.436458
1.83149e-06
0.436456
1.80405e-06
0.436454
1.90294e-06
0.436451
2.00131e-06
0.436449
1.98329e-06
0.436446
1.84055e-06
0.436445
1.67036e-06
0.436443
1.54504e-06
0.436441
1.43448e-06
0.436439
1.29544e-06
0.436437
1.14132e-06
0.436436
1.05762e-06
0.436434
1.10131e-06
0.436432
1.23216e-06
0.43643
1.33569e-06
0.436428
1.33429e-06
0.436427
1.25314e-06
0.436425
1.15411e-06
0.436424
1.0407e-06
0.436422
8.6387e-07
0.436421
6.25001e-07
0.436419
4.32994e-07
0.436418
4.076e-07
0.436417
5.17071e-07
0.436416
5.69087e-07
0.436415
4.00504e-07
0.436414
5.66028e-09
0.436414
-4.07309e-07
0.436413
-6.57998e-07
0.436413
-7.48473e-07
0.436412
-7.83553e-07
0.436411
-8.30336e-07
0.43641
-8.43997e-07
0.436409
-7.48357e-07
0.436407
-5.53059e-07
0.436406
-3.50487e-07
0.436405
-2.32347e-07
0.436404
-2.3217e-07
0.436404
-3.22634e-07
0.436403
-4.36527e-07
0.436402
-5.08938e-07
0.436401
-4.77569e-07
0.4364
-3.24951e-07
0.4364
-7.9641e-08
0.436399
1.14369e-07
0.436399
2.11286e-07
0.436398
1.96542e-07
0.436398
1.16446e-07
0.436398
2.91405e-08
0.436398
-9.82481e-08
0.436398
-2.26335e-07
0.436398
-3.44751e-07
0.436398
-4.08042e-07
0.436398
-4.17319e-07
0.436399
-4.1343e-07
0.436399
-4.32555e-07
0.4364
-4.53858e-07
0.436402
-4.28248e-07
0.436403
-3.66079e-07
0.436404
-3.41059e-07
0.436405
-4.41259e-07
0.436406
-6.32483e-07
0.436407
-7.67655e-07
0.436408
-7.57403e-07
0.436409
-5.92899e-07
0.43641
-4.36434e-07
0.43641
-4.06632e-07
0.436411
-4.66798e-07
0.436411
-4.94889e-07
0.436412
-4.10781e-07
0.436413
-2.54818e-07
0.436413
-1.36148e-07
0.436414
-1.16612e-07
0.436414
-1.5839e-07
0.436415
-1.83529e-07
0.436415
-1.61948e-07
0.436416
-1.36457e-07
0.436416
-1.71502e-07
0.436416
-2.32426e-07
0.436416
-2.38991e-07
0.436416
-2.2654e-07
0.436417
-2.62023e-07
0.436417
-3.69468e-07
0.436417
-4.41805e-07
0.436418
-3.87491e-07
0.436419
-2.00994e-07
0.436419
-1.85661e-08
0.436419
-6.72073e-08
0.43642
-3.07505e-07
0.436421
-5.17338e-07
0.436422
-4.96299e-07
0.436423
-3.00121e-07
0.436424
-1.17836e-07
0.436424
-1.02635e-07
0.436423
-2.44462e-07
0.436424
-3.68871e-07
0.436424
-3.60963e-07
0.436424
-2.49189e-07
0.436424
-1.2499e-07
0.436423
-4.76244e-08
0.436423
2.80961e-08
0.436423
1.21723e-07
0.436422
2.2664e-07
3.78859e-07
0.436346
-1.42822e-07
0.436346
-3.22454e-07
0.436348
-1.47792e-08
0.436349
1.10859e-06
0.436349
1.90568e-06
0.436348
2.41988e-06
0.436347
2.64584e-06
0.436346
2.86088e-06
0.436346
3.21522e-06
0.436345
2.90913e-06
0.436345
2.25229e-06
0.436346
1.72636e-06
0.436347
1.38177e-06
0.436348
1.46784e-06
0.436348
1.59868e-06
0.436349
1.49242e-06
0.43635
1.9457e-06
0.43635
2.06776e-06
0.436352
1.47983e-06
0.436354
1.3274e-06
0.436356
1.71434e-06
0.436357
1.85218e-06
0.436358
1.74372e-06
0.43636
1.56693e-06
0.436361
1.27577e-06
0.436362
1.26489e-06
0.436364
1.38253e-06
0.436366
1.74899e-06
0.436366
2.59033e-06
0.436365
3.13695e-06
0.436363
3.19864e-06
0.436362
3.01169e-06
0.436361
2.72306e-06
0.43636
2.70599e-06
0.43636
2.76505e-06
0.436359
2.51249e-06
0.43636
2.39352e-06
0.43636
2.82942e-06
0.43636
3.21537e-06
0.436359
3.01464e-06
0.436358
2.60759e-06
0.436358
2.55544e-06
0.436358
2.74246e-06
0.436357
2.74216e-06
0.436357
2.49553e-06
0.436356
2.22972e-06
0.436356
2.13271e-06
0.436356
2.26736e-06
0.436356
2.53326e-06
0.436356
2.67983e-06
0.436355
2.56373e-06
0.436355
2.36621e-06
0.436354
2.26854e-06
0.436354
2.14222e-06
0.436354
1.89087e-06
0.436355
1.78312e-06
0.436357
2.07892e-06
0.436357
2.51629e-06
0.436357
2.60251e-06
0.436356
2.30635e-06
0.436355
2.06305e-06
0.436355
2.11237e-06
0.436354
2.20941e-06
0.436355
2.08822e-06
0.436356
1.86641e-06
0.436357
1.83357e-06
0.436357
2.03746e-06
0.436358
2.24122e-06
0.436358
2.23426e-06
0.436359
2.0615e-06
0.43636
1.94696e-06
0.43636
2.04159e-06
0.436361
2.25674e-06
0.436361
2.35999e-06
0.43636
2.24252e-06
0.43636
2.05078e-06
0.43636
2.01041e-06
0.43636
2.14949e-06
0.43636
2.25987e-06
0.43636
2.14369e-06
0.43636
1.86167e-06
0.436361
1.6921e-06
0.436362
1.81917e-06
0.436363
2.10934e-06
0.436363
2.26033e-06
0.436364
2.15704e-06
0.436364
2.00138e-06
0.436364
2.05579e-06
0.436364
2.32569e-06
0.436364
2.56303e-06
0.436363
2.55635e-06
0.436363
2.34912e-06
0.436363
2.16634e-06
0.436363
2.16841e-06
0.436363
2.28889e-06
0.436362
2.34673e-06
0.436362
2.27182e-06
0.436362
2.15347e-06
0.436362
2.10451e-06
0.436362
2.11788e-06
0.436362
2.09967e-06
0.436362
2.01679e-06
0.436362
1.93931e-06
0.436363
1.9425e-06
0.436363
1.99508e-06
0.436363
1.97378e-06
0.436363
1.80897e-06
0.436363
1.58966e-06
0.436364
1.48039e-06
0.436365
1.5298e-06
0.436366
1.61668e-06
0.436367
1.6091e-06
0.436368
1.51793e-06
0.436369
1.43734e-06
0.436371
1.38859e-06
0.436372
1.30652e-06
0.436374
1.17282e-06
0.436375
1.08049e-06
0.436376
1.13663e-06
0.436378
1.33381e-06
0.436379
1.55747e-06
0.43638
1.71007e-06
0.436381
1.78549e-06
0.436382
1.82593e-06
0.436382
1.86352e-06
0.436383
1.92263e-06
0.436383
2.02097e-06
0.436383
2.13951e-06
0.436384
2.2029e-06
0.436384
2.1415e-06
0.436384
1.98306e-06
0.436384
1.83572e-06
0.436385
1.78168e-06
0.436385
1.8099e-06
0.436386
1.8489e-06
0.436386
1.84385e-06
0.436387
1.78894e-06
0.436388
1.69271e-06
0.436389
1.57164e-06
0.436389
1.45259e-06
0.43639
1.3749e-06
0.436391
1.36635e-06
0.436392
1.41178e-06
0.436393
1.4432e-06
0.436394
1.39221e-06
0.436395
1.25083e-06
0.436396
1.09361e-06
0.436397
1.02993e-06
0.436397
1.12245e-06
0.436398
1.31146e-06
0.436399
1.4393e-06
0.436399
1.37015e-06
0.4364
1.09979e-06
0.4364
7.46312e-07
0.436401
4.40315e-07
0.436403
2.22661e-07
0.436404
7.2679e-08
0.436405
-1.6924e-08
0.436406
-6.03717e-08
0.436407
-3.62519e-08
0.436408
-7.94505e-09
0.43641
-6.12988e-08
0.436411
-1.98127e-07
0.436413
-3.25952e-07
0.436414
-3.2507e-07
0.436415
-1.74174e-07
0.436416
3.32563e-08
0.436416
2.02667e-07
0.436416
3.63453e-07
0.436416
5.91684e-07
0.436416
8.86223e-07
0.436415
1.11329e-06
0.436414
1.11047e-06
0.436413
8.7999e-07
0.436411
5.93479e-07
0.43641
4.34976e-07
0.436409
4.65855e-07
0.436407
6.06329e-07
0.436406
7.50544e-07
0.436404
8.50393e-07
0.436403
9.00258e-07
0.436402
8.89851e-07
0.436401
8.06749e-07
0.4364
6.63688e-07
0.436399
4.98466e-07
0.436398
3.50863e-07
0.436397
2.46788e-07
0.436397
2.16735e-07
0.436396
2.84773e-07
0.436395
4.4207e-07
0.436395
6.15679e-07
0.436394
7.10826e-07
0.436394
6.5831e-07
0.436394
4.81131e-07
0.436393
2.65357e-07
0.436393
6.7503e-08
0.436393
-9.43438e-08
0.436393
-2.26086e-07
0.436393
-3.17138e-07
0.436393
-3.34077e-07
0.436393
-2.84719e-07
0.436392
-2.60187e-07
0.436392
-3.12934e-07
0.436392
-4.27125e-07
0.436392
-5.29993e-07
0.436393
-5.55361e-07
0.436393
-5.47373e-07
0.436393
-6.14802e-07
0.436393
-7.69545e-07
0.436393
-9.21126e-07
0.436393
-9.4137e-07
0.436394
-8.15514e-07
0.436394
-6.47248e-07
0.436394
-5.48607e-07
0.436394
-5.43392e-07
0.436394
-5.56172e-07
0.436394
-5.08354e-07
0.436395
-4.04641e-07
0.436395
-3.17508e-07
0.436395
-2.95446e-07
0.436395
-3.14024e-07
0.436395
-3.20544e-07
0.436396
-3.02912e-07
0.436396
-3.00173e-07
0.436396
-3.35421e-07
0.436396
-3.67589e-07
0.436396
-3.48047e-07
0.436396
-2.91067e-07
0.436396
-2.88116e-07
0.436396
-3.99794e-07
0.436396
-5.57543e-07
0.436396
-6.04356e-07
0.436397
-4.70538e-07
0.436397
-2.9268e-07
0.436397
-2.2708e-07
0.436397
-3.62124e-07
0.436397
-5.63724e-07
0.436397
-6.47885e-07
0.436398
-5.50553e-07
0.436398
-3.84016e-07
0.436398
-2.96581e-07
0.436398
-3.05975e-07
0.436398
-3.21311e-07
0.436398
-2.54659e-07
0.436398
-9.77879e-08
0.436398
7.01265e-08
0.436398
2.3535e-07
0.436397
3.94209e-07
0.436397
5.29722e-07
7.67441e-07
0.436346
6.74693e-07
0.436344
1.49396e-06
0.436343
1.37911e-06
0.436344
6.19172e-07
0.436345
4.37979e-07
0.436347
8.31501e-07
0.436348
1.3243e-06
0.43635
1.26174e-06
0.436352
8.90151e-07
0.436354
8.42042e-07
0.436355
1.61693e-06
0.436354
2.61457e-06
0.436352
2.85585e-06
0.436351
2.28645e-06
0.436351
1.89211e-06
0.436351
1.77133e-06
0.436351
1.92333e-06
0.436351
1.98966e-06
0.436351
1.84794e-06
0.43635
1.85407e-06
0.43635
2.02335e-06
0.43635
1.91526e-06
0.43635
1.80243e-06
0.436349
2.30191e-06
0.436348
2.38075e-06
0.436347
1.95566e-06
0.436347
1.85185e-06
0.436347
1.6998e-06
0.436348
1.48172e-06
0.436349
1.58438e-06
0.436351
1.83068e-06
0.436352
1.94708e-06
0.436352
1.9584e-06
0.436353
2.00876e-06
0.436354
2.02438e-06
0.436355
1.8087e-06
0.436356
1.40278e-06
0.436357
1.17498e-06
0.436359
1.3551e-06
0.43636
1.74042e-06
0.436361
1.94617e-06
0.436362
1.92053e-06
0.436362
1.93315e-06
0.436363
2.11438e-06
0.436363
2.30209e-06
0.436363
2.29078e-06
0.436363
2.05564e-06
0.436364
1.77423e-06
0.436365
1.59808e-06
0.436366
1.52617e-06
0.436367
1.48274e-06
0.436368
1.53938e-06
0.436368
1.82261e-06
0.436368
2.1163e-06
0.436368
2.05308e-06
0.436368
1.6314e-06
0.436369
1.31848e-06
0.43637
1.44019e-06
0.436371
1.81416e-06
0.436371
2.09852e-06
0.436371
2.24475e-06
0.436371
2.36393e-06
0.436371
2.3915e-06
0.43637
2.19074e-06
0.43637
1.85968e-06
0.436371
1.67752e-06
0.436371
1.76686e-06
0.436371
1.9462e-06
0.436371
1.98195e-06
0.436372
1.84091e-06
0.436372
1.67187e-06
0.436372
1.62231e-06
0.436373
1.70637e-06
0.436373
1.82146e-06
0.436374
1.86192e-06
0.436374
1.81745e-06
0.436374
1.7723e-06
0.436375
1.80462e-06
0.436375
1.90312e-06
0.436375
1.96887e-06
0.436375
1.91699e-06
0.436375
1.77678e-06
0.436375
1.67143e-06
0.436376
1.67449e-06
0.436376
1.71559e-06
0.436377
1.67585e-06
0.436377
1.55834e-06
0.436378
1.49826e-06
0.436378
1.58837e-06
0.436379
1.74974e-06
0.43638
1.81789e-06
0.43638
1.73065e-06
0.436381
1.60242e-06
0.436382
1.60172e-06
0.436382
1.75985e-06
0.436383
1.93637e-06
0.436383
1.97634e-06
0.436383
1.88366e-06
0.436383
1.80201e-06
0.436384
1.83226e-06
0.436384
1.92634e-06
0.436384
1.96626e-06
0.436384
1.9132e-06
0.436384
1.85104e-06
0.436384
1.87816e-06
0.436384
1.97312e-06
0.436384
2.00177e-06
0.436384
1.88404e-06
0.436383
1.72502e-06
0.436383
1.71941e-06
0.436383
1.92367e-06
0.436382
2.18152e-06
0.436382
2.29205e-06
0.436381
2.20432e-06
0.43638
2.02384e-06
0.43638
1.88056e-06
0.436379
1.84176e-06
0.436378
1.9176e-06
0.436377
2.07774e-06
0.436376
2.24018e-06
0.436376
2.29374e-06
0.436375
2.19089e-06
0.436375
2.01181e-06
0.436375
1.89652e-06
0.436375
1.91147e-06
0.436375
2.00073e-06
0.436375
2.0646e-06
0.436375
2.05761e-06
0.436375
1.99195e-06
0.436375
1.89569e-06
0.436375
1.81034e-06
0.436375
1.79451e-06
0.436375
1.88807e-06
0.436375
2.06122e-06
0.436375
2.21776e-06
0.436374
2.27792e-06
0.436374
2.24551e-06
0.436373
2.18664e-06
0.436373
2.16231e-06
0.436372
2.17773e-06
0.436371
2.1893e-06
0.43637
2.15528e-06
0.43637
2.06906e-06
0.436369
1.95797e-06
0.436369
1.85943e-06
0.436368
1.79432e-06
0.436367
1.76399e-06
0.436367
1.77227e-06
0.436366
1.84038e-06
0.436365
1.97967e-06
0.436365
2.14838e-06
0.436364
2.25224e-06
0.436363
2.21514e-06
0.436361
2.05891e-06
0.43636
1.89823e-06
0.436358
1.84368e-06
0.436356
1.91613e-06
0.436354
2.04731e-06
0.436352
2.14744e-06
0.43635
2.18166e-06
0.436348
2.13796e-06
0.436346
1.98549e-06
0.436344
1.68971e-06
0.436342
1.27718e-06
0.436341
8.70786e-07
0.43634
6.10147e-07
0.43634
5.25969e-07
0.436339
5.07299e-07
0.436339
4.20995e-07
0.43634
2.30969e-07
0.436341
-1.23434e-09
0.436342
-1.98944e-07
0.436343
-4.10108e-07
0.436345
-6.891e-07
0.436347
-1.02217e-06
0.436348
-1.3024e-06
0.43635
-1.42103e-06
0.436352
-1.36685e-06
0.436354
-1.23324e-06
0.436356
-1.14144e-06
0.436358
-1.15323e-06
0.43636
-1.28424e-06
0.436363
-1.5084e-06
0.436365
-1.7691e-06
0.436368
-1.98577e-06
0.43637
-2.08608e-06
0.436372
-2.04874e-06
0.436375
-1.90595e-06
0.436377
-1.70646e-06
0.436378
-1.48167e-06
0.43638
-1.2476e-06
0.436382
-1.02114e-06
0.436384
-8.56178e-07
0.436385
-7.9773e-07
0.436386
-8.34954e-07
0.436387
-9.09851e-07
0.436388
-9.67721e-07
0.436389
-9.95972e-07
0.436389
-1.00511e-06
0.43639
-9.80142e-07
0.43639
-8.94311e-07
0.436391
-7.64005e-07
0.436391
-6.59911e-07
0.436392
-6.62251e-07
0.436392
-7.74024e-07
0.436392
-8.98705e-07
0.436393
-9.42869e-07
0.436393
-9.0916e-07
0.436393
-8.78428e-07
0.436393
-9.20026e-07
0.436393
-1.00433e-06
0.436393
-1.0371e-06
0.436394
-9.62773e-07
0.436394
-8.19388e-07
0.436394
-6.97756e-07
0.436394
-6.45877e-07
0.436394
-6.3122e-07
0.436394
-5.9428e-07
0.436395
-5.22041e-07
0.436395
-4.55966e-07
0.436395
-4.33509e-07
0.436395
-4.38514e-07
0.436395
-4.2742e-07
0.436395
-3.96712e-07
0.436395
-3.95106e-07
0.436395
-4.52683e-07
0.436396
-5.24161e-07
0.436396
-5.27813e-07
0.436396
-4.46965e-07
0.436396
-3.7236e-07
0.436396
-4.12995e-07
0.436396
-5.62065e-07
0.436396
-6.93331e-07
0.436396
-6.92061e-07
0.436397
-5.69832e-07
0.436397
-4.62396e-07
0.436397
-4.70389e-07
0.436397
-5.6441e-07
0.436397
-6.27824e-07
0.436397
-5.89027e-07
0.436397
-4.7836e-07
0.436397
-3.66007e-07
0.436397
-2.77036e-07
0.436397
-1.75106e-07
0.436397
-1.69895e-08
0.436397
1.86034e-07
0.436397
4.05285e-07
0.436396
6.2919e-07
0.436396
8.16541e-07
1.12639e-06
0.43635
-3.30539e-07
0.436351
5.52501e-07
0.436351
1.68296e-06
0.436349
2.3618e-06
0.436348
1.56698e-06
0.436348
6.38772e-07
0.436348
1.4349e-06
0.436347
2.28076e-06
0.436345
2.72622e-06
0.436344
2.67907e-06
0.436343
1.95569e-06
0.436344
1.48822e-06
0.436345
1.96085e-06
0.436345
2.48066e-06
0.436344
2.50639e-06
0.436344
1.85262e-06
0.436345
1.37842e-06
0.436345
1.63591e-06
0.436345
1.7086e-06
0.436346
1.33412e-06
0.436347
1.17679e-06
0.436347
1.36113e-06
0.436348
1.40528e-06
0.436349
1.37698e-06
0.436349
1.62746e-06
0.43635
1.69899e-06
0.43635
1.52678e-06
0.43635
1.39526e-06
0.436351
1.12892e-06
0.436351
7.78076e-07
0.436353
7.06503e-07
0.436354
8.63321e-07
0.436355
8.06435e-07
0.436356
6.67381e-07
0.436357
1.03584e-06
0.436357
1.68181e-06
0.436357
1.80562e-06
0.436357
1.36161e-06
0.436357
1.07722e-06
0.436357
1.18162e-06
0.436358
1.26192e-06
0.436359
1.14251e-06
0.43636
1.08912e-06
0.436361
1.24319e-06
0.436362
1.46334e-06
0.436362
1.64747e-06
0.436362
1.7823e-06
0.436362
1.82314e-06
0.436362
1.81217e-06
0.436362
1.88913e-06
0.436361
2.01363e-06
0.436361
1.98279e-06
0.436361
1.827e-06
0.436361
1.82251e-06
0.436361
2.0157e-06
0.436361
2.09392e-06
0.43636
1.88299e-06
0.43636
1.60293e-06
0.43636
1.54292e-06
0.436361
1.64825e-06
0.436361
1.66951e-06
0.436362
1.53974e-06
0.436363
1.41402e-06
0.436364
1.43321e-06
0.436364
1.57687e-06
0.436364
1.72397e-06
0.436364
1.77565e-06
0.436364
1.72407e-06
0.436365
1.64745e-06
0.436365
1.63836e-06
0.436365
1.69901e-06
0.436365
1.75891e-06
0.436365
1.78503e-06
0.436365
1.81869e-06
0.436365
1.8887e-06
0.436364
1.93829e-06
0.436364
1.88219e-06
0.436364
1.72845e-06
0.436365
1.60924e-06
0.436365
1.64948e-06
0.436365
1.81184e-06
0.436365
1.91459e-06
0.436365
1.82775e-06
0.436365
1.61451e-06
0.436365
1.44212e-06
0.436365
1.38941e-06
0.436366
1.39059e-06
0.436366
1.35044e-06
0.436366
1.25641e-06
0.436367
1.16217e-06
0.436367
1.11211e-06
0.436368
1.09948e-06
0.436369
1.09815e-06
0.436369
1.11422e-06
0.43637
1.17386e-06
0.43637
1.27072e-06
0.436371
1.33846e-06
0.436371
1.317e-06
0.436372
1.23047e-06
0.436373
1.16432e-06
0.436373
1.17674e-06
0.436374
1.24389e-06
0.436375
1.29766e-06
0.436375
1.30809e-06
0.436376
1.31832e-06
0.436376
1.38909e-06
0.436377
1.50939e-06
0.436377
1.59922e-06
0.436377
1.6264e-06
0.436377
1.67805e-06
0.436377
1.85643e-06
0.436378
2.11849e-06
0.436378
2.28379e-06
0.436378
2.22066e-06
0.436378
1.9852e-06
0.436378
1.75771e-06
0.436378
1.67446e-06
0.436378
1.73818e-06
0.436378
1.85522e-06
0.436379
1.91679e-06
0.436379
1.84568e-06
0.43638
1.62739e-06
0.43638
1.34043e-06
0.436381
1.12789e-06
0.436382
1.08977e-06
0.436383
1.18999e-06
0.436383
1.29121e-06
0.436384
1.28972e-06
0.436385
1.19491e-06
0.436386
1.09046e-06
0.436387
1.05382e-06
0.436387
1.11697e-06
0.436388
1.27407e-06
0.436388
1.4801e-06
0.436389
1.64867e-06
0.43639
1.69919e-06
0.43639
1.61632e-06
0.436391
1.46265e-06
0.436392
1.33231e-06
0.436393
1.27419e-06
0.436394
1.25288e-06
0.436395
1.18403e-06
0.436396
1.0068e-06
0.436397
7.3575e-07
0.436398
4.58689e-07
0.4364
2.74023e-07
0.436401
2.20704e-07
0.436403
2.54833e-07
0.436404
2.98247e-07
0.436406
3.01141e-07
0.436408
2.64674e-07
0.43641
2.06446e-07
0.436412
1.2852e-07
0.436414
3.68287e-08
0.436416
-1.99566e-08
0.436418
3.80577e-08
0.436419
2.60428e-07
0.436421
6.08628e-07
0.436422
9.67316e-07
0.436423
1.23737e-06
0.436424
1.39582e-06
0.436424
1.47152e-06
0.436424
1.48014e-06
0.436424
1.41275e-06
0.436424
1.28358e-06
0.436423
1.17363e-06
0.436423
1.17138e-06
0.436422
1.27529e-06
0.436421
1.37175e-06
0.43642
1.32349e-06
0.436419
1.08995e-06
0.436418
7.53458e-07
0.436417
4.1855e-07
0.436416
1.40776e-07
0.436415
-7.75627e-08
0.436414
-2.27674e-07
0.436413
-2.73008e-07
0.436412
-1.94807e-07
0.436411
-4.21475e-08
0.436409
7.89875e-08
0.436408
1.1989e-07
0.436407
2.86058e-08
0.436406
-1.75368e-07
0.436404
-4.37678e-07
0.436403
-6.81889e-07
0.436402
-8.29646e-07
0.4364
-8.30742e-07
0.436399
-6.94328e-07
0.436398
-4.86476e-07
0.436397
-2.87981e-07
0.436396
-1.54395e-07
0.436395
-5.38229e-08
0.436394
-1.01954e-08
0.436393
-4.28169e-08
0.436392
-1.50272e-07
0.436392
-2.95043e-07
0.436391
-4.1249e-07
0.436391
-4.68983e-07
0.43639
-4.83052e-07
0.43639
-4.96419e-07
0.436389
-5.18735e-07
0.436389
-5.27066e-07
0.436389
-5.09915e-07
0.436389
-5.17688e-07
0.436389
-6.20867e-07
0.436389
-8.27712e-07
0.436389
-1.05684e-06
0.436389
-1.20748e-06
0.436389
-1.24873e-06
0.43639
-1.24052e-06
0.43639
-1.25613e-06
0.43639
-1.30279e-06
0.436391
-1.32337e-06
0.436391
-1.26723e-06
0.436392
-1.14996e-06
0.436392
-1.03468e-06
0.436392
-9.63084e-07
0.436393
-9.18095e-07
0.436393
-8.5702e-07
0.436393
-7.70131e-07
0.436393
-6.91944e-07
0.436394
-6.52761e-07
0.436394
-6.36291e-07
0.436394
-6.01739e-07
0.436394
-5.47456e-07
0.436394
-5.25182e-07
0.436394
-5.76738e-07
0.436395
-6.65841e-07
0.436395
-7.01003e-07
0.436395
-6.39197e-07
0.436395
-5.44925e-07
0.436395
-5.2751e-07
0.436395
-6.23252e-07
0.436395
-7.50501e-07
0.436395
-7.93593e-07
0.436396
-7.27969e-07
0.436396
-6.34665e-07
0.436396
-5.99948e-07
0.436396
-6.23081e-07
0.436396
-6.30456e-07
0.436396
-5.63562e-07
0.436396
-4.29383e-07
0.436396
-2.70529e-07
0.436396
-1.0424e-07
0.436396
8.83418e-08
0.436396
3.23194e-07
0.436395
5.85932e-07
0.436395
8.62985e-07
0.436395
1.09879e-06
1.50933e-06
0.436346
-6.63666e-07
0.436347
-6.16252e-07
0.436349
6.03744e-08
0.436351
7.7475e-07
0.436351
1.38414e-06
0.43635
1.45259e-06
0.43635
1.07984e-06
0.436351
1.35895e-06
0.436353
1.36212e-06
0.436354
1.12404e-06
0.436355
1.07143e-06
0.436356
9.51787e-07
0.436357
6.31484e-07
0.436359
4.34144e-07
0.436361
7.87553e-07
0.436361
1.49036e-06
0.436361
1.37308e-06
0.436361
1.30353e-06
0.436362
1.47269e-06
0.436362
1.37779e-06
0.436361
1.48755e-06
0.436361
1.67193e-06
0.436361
1.72001e-06
0.43636
1.67236e-06
0.436361
1.47586e-06
0.436361
1.33247e-06
0.436361
1.48846e-06
0.436361
1.6441e-06
0.43636
1.58526e-06
0.436359
1.63632e-06
0.436358
1.88114e-06
0.436357
2.06905e-06
0.436356
1.98884e-06
0.436355
1.61696e-06
0.436355
1.33516e-06
0.436355
1.47661e-06
0.436355
1.80054e-06
0.436354
1.89936e-06
0.436354
1.79525e-06
0.436353
1.74632e-06
0.436352
1.79295e-06
0.436352
1.80367e-06
0.436351
1.72438e-06
0.436351
1.57458e-06
0.436351
1.4058e-06
0.436351
1.29612e-06
0.436352
1.23201e-06
0.436352
1.15229e-06
0.436353
1.10475e-06
0.436354
1.25982e-06
0.436354
1.57176e-06
0.436355
1.63291e-06
0.436355
1.29491e-06
0.436356
9.7744e-07
0.436357
1.07261e-06
0.436358
1.38827e-06
0.436358
1.47666e-06
0.436358
1.31632e-06
0.436359
1.24798e-06
0.436359
1.3838e-06
0.436359
1.44558e-06
0.436359
1.25366e-06
0.43636
1.02265e-06
0.43636
1.05383e-06
0.43636
1.32302e-06
0.436361
1.5337e-06
0.436361
1.48745e-06
0.436361
1.27425e-06
0.436362
1.11632e-06
0.436362
1.13363e-06
0.436363
1.25245e-06
0.436363
1.32571e-06
0.436364
1.30858e-06
0.436364
1.2856e-06
0.436365
1.34339e-06
0.436365
1.45355e-06
0.436366
1.50395e-06
0.436366
1.42904e-06
0.436366
1.29742e-06
0.436367
1.25997e-06
0.436367
1.38592e-06
0.436367
1.5681e-06
0.436368
1.6286e-06
0.436368
1.52175e-06
0.436368
1.38985e-06
0.436368
1.39575e-06
0.436368
1.53767e-06
0.436367
1.66789e-06
0.436367
1.66135e-06
0.436366
1.5327e-06
0.436366
1.39524e-06
0.436366
1.327e-06
0.436366
1.30705e-06
0.436366
1.26596e-06
0.436366
1.18676e-06
0.436366
1.13146e-06
0.436366
1.1486e-06
0.436366
1.20525e-06
0.436366
1.2275e-06
0.436366
1.1938e-06
0.436366
1.16626e-06
0.436366
1.22118e-06
0.436366
1.35707e-06
0.436366
1.47733e-06
0.436366
1.47857e-06
0.436366
1.35959e-06
0.436366
1.2195e-06
0.436366
1.14427e-06
0.436367
1.13093e-06
0.436367
1.13573e-06
0.436368
1.14571e-06
0.436369
1.1601e-06
0.43637
1.13916e-06
0.436371
1.03684e-06
0.436373
8.85515e-07
0.436374
8.01979e-07
0.436374
8.82753e-07
0.436375
1.1052e-06
0.436375
1.35043e-06
0.436376
1.51292e-06
0.436376
1.57061e-06
0.436376
1.5661e-06
0.436376
1.55837e-06
0.436376
1.60164e-06
0.436375
1.72919e-06
0.436374
1.91092e-06
0.436373
2.04513e-06
0.436373
2.03598e-06
0.436372
1.88554e-06
0.436371
1.69684e-06
0.436371
1.58164e-06
0.43637
1.57469e-06
0.43637
1.63681e-06
0.43637