/*--------------------------------*- C++ -*----------------------------------*\
| =========                 |                                                 |
| \\      /  F ield         | OpenFOAM: The Open Source CFD Toolbox           |
|  \\    /   O peration     | Version:  2406                                  |
|   \\  /    A nd           | Website:  www.openfoam.com                      |
|    \\/     M anipulation  |                                                 |
\*---------------------------------------------------------------------------*/
FoamFile
{
    version     2.0;
    format      ascii;
    arch        "LSB;label=32;scalar=64";
    class       volVectorField;
    location    "0.45";
    object      U;
}
// * * * * * * * * * * * * * * * * * * * * * * * * * * * * * * * * * * * * * //

dimensions      [0 1 -1 0 0 0 0];

internalField   nonuniform List<vector> 
6250
(
(51.2271 0.00688461 0)
(85.5866 0.0314039 0)
(72.718 0.0458 0)
(60.062 0.0495172 0)
(59.5165 0.0507622 0)
(63.0227 0.0540309 0)
(64.4632 0.0584935 0)
(63.9458 0.062263 0)
(63.2985 0.0649064 0)
(63.1774 0.0669781 0)
(63.2945 0.0689059 0)
(63.3466 0.0707199 0)
(63.3033 0.0723258 0)
(63.2422 0.0737067 0)
(63.2024 0.0749115 0)
(63.1757 0.0759863 0)
(63.1475 0.0769512 0)
(63.1147 0.0778146 0)
(63.0805 0.078586 0)
(63.047 0.0792773 0)
(63.014 0.0798994 0)
(62.9811 0.0804607 0)
(62.9478 0.0809678 0)
(62.9144 0.0814265 0)
(62.881 0.0818422 0)
(62.8475 0.0822194 0)
(62.814 0.0825621 0)
(62.7805 0.0828738 0)
(62.747 0.0831574 0)
(62.7134 0.0834158 0)
(62.6798 0.0836512 0)
(62.6462 0.0838657 0)
(62.6126 0.0840613 0)
(62.579 0.0842395 0)
(62.5454 0.0844018 0)
(62.5118 0.0845495 0)
(62.4781 0.0846839 0)
(62.4445 0.0848059 0)
(62.4108 0.0849166 0)
(62.3772 0.0850168 0)
(62.3436 0.0851072 0)
(62.3099 0.0851886 0)
(62.2763 0.0852616 0)
(62.2427 0.0853268 0)
(62.209 0.0853847 0)
(62.1754 0.0854359 0)
(62.1418 0.0854807 0)
(62.1082 0.0855195 0)
(62.0746 0.0855528 0)
(62.041 0.0855808 0)
(62.0074 0.0856039 0)
(61.9738 0.0856224 0)
(61.9402 0.0856365 0)
(61.9067 0.0856465 0)
(61.8731 0.0856526 0)
(61.8395 0.085655 0)
(61.806 0.0856539 0)
(61.7725 0.0856495 0)
(61.7389 0.085642 0)
(61.7054 0.0856316 0)
(61.6719 0.0856183 0)
(61.6384 0.0856023 0)
(61.6049 0.0855838 0)
(61.5714 0.0855628 0)
(61.5379 0.0855395 0)
(61.5044 0.085514 0)
(61.4709 0.0854864 0)
(61.4375 0.0854568 0)
(61.404 0.0854253 0)
(61.3706 0.0853919 0)
(61.3372 0.0853567 0)
(61.3037 0.0853199 0)
(61.2703 0.0852814 0)
(61.2369 0.0852414 0)
(61.2035 0.0851999 0)
(61.1701 0.085157 0)
(61.1367 0.0851127 0)
(61.1034 0.0850671 0)
(61.07 0.0850203 0)
(61.0366 0.0849722 0)
(61.0033 0.084923 0)
(60.9699 0.0848726 0)
(60.9366 0.0848212 0)
(60.9033 0.0847688 0)
(60.87 0.0847153 0)
(60.8367 0.0846609 0)
(60.8034 0.0846056 0)
(60.7701 0.0845494 0)
(60.7368 0.0844923 0)
(60.7035 0.0844344 0)
(60.6703 0.0843757 0)
(60.637 0.0843162 0)
(60.6038 0.084256 0)
(60.5706 0.0841951 0)
(60.5373 0.0841335 0)
(60.5041 0.0840712 0)
(60.4709 0.0840083 0)
(60.4377 0.0839448 0)
(60.4045 0.0838806 0)
(60.3713 0.0838159 0)
(60.3382 0.0837506 0)
(60.305 0.0836848 0)
(60.2719 0.0836185 0)
(60.2387 0.0835517 0)
(60.2056 0.0834844 0)
(60.1725 0.0834166 0)
(60.1393 0.0833483 0)
(60.1062 0.0832796 0)
(60.0731 0.0832105 0)
(60.04 0.083141 0)
(60.0069 0.0830711 0)
(59.9739 0.0830008 0)
(59.9408 0.0829301 0)
(59.9078 0.082859 0)
(59.8747 0.0827876 0)
(59.8417 0.0827159 0)
(59.8086 0.0826438 0)
(59.7756 0.0825714 0)
(59.7426 0.0824987 0)
(59.7096 0.0824257 0)
(59.6766 0.0823524 0)
(59.6436 0.0822789 0)
(59.6107 0.082205 0)
(59.5777 0.0821309 0)
(59.5447 0.0820565 0)
(59.5118 0.0819819 0)
(59.4788 0.081907 0)
(59.4459 0.081832 0)
(59.413 0.0817566 0)
(59.3801 0.0816811 0)
(59.3472 0.0816053 0)
(59.3143 0.0815294 0)
(59.2814 0.0814532 0)
(59.2485 0.0813768 0)
(59.2157 0.0813003 0)
(59.1828 0.0812235 0)
(59.15 0.0811466 0)
(59.1171 0.0810695 0)
(59.0843 0.0809922 0)
(59.0515 0.0809148 0)
(59.0186 0.0808372 0)
(58.9858 0.0807595 0)
(58.953 0.0806816 0)
(58.9203 0.0806035 0)
(58.8875 0.0805253 0)
(58.8547 0.080447 0)
(58.822 0.0803685 0)
(58.7892 0.0802899 0)
(58.7565 0.0802112 0)
(58.7237 0.0801323 0)
(58.691 0.0800533 0)
(58.6583 0.0799743 0)
(58.6256 0.079895 0)
(58.5929 0.0798157 0)
(58.5602 0.0797363 0)
(58.5275 0.0796568 0)
(58.4949 0.0795771 0)
(58.4622 0.0794974 0)
(58.4296 0.0794176 0)
(58.3969 0.0793376 0)
(58.3643 0.0792576 0)
(58.3317 0.0791775 0)
(58.2991 0.0790973 0)
(58.2665 0.079017 0)
(58.2339 0.0789366 0)
(58.2013 0.0788562 0)
(58.1687 0.0787757 0)
(58.1361 0.0786951 0)
(58.1036 0.0786144 0)
(58.071 0.0785337 0)
(58.0385 0.0784529 0)
(58.006 0.078372 0)
(57.9734 0.078291 0)
(57.9409 0.07821 0)
(57.9084 0.0781289 0)
(57.8759 0.0780478 0)
(57.8434 0.0779666 0)
(57.811 0.0778854 0)
(57.7785 0.0778041 0)
(57.746 0.0777228 0)
(57.7136 0.0776414 0)
(57.6812 0.0775599 0)
(57.6487 0.0774784 0)
(57.6163 0.0773968 0)
(57.5839 0.0773152 0)
(57.5515 0.0772336 0)
(57.5191 0.0771519 0)
(57.4867 0.0770702 0)
(57.4543 0.0769884 0)
(57.422 0.0769067 0)
(57.3896 0.0768249 0)
(57.3573 0.076743 0)
(57.3249 0.0766612 0)
(57.2926 0.0765792 0)
(57.2603 0.0764973 0)
(57.228 0.0764153 0)
(57.1957 0.0763333 0)
(57.1634 0.0762512 0)
(57.1311 0.0761692 0)
(57.0989 0.0760871 0)
(57.0666 0.0760051 0)
(57.0343 0.075923 0)
(57.0021 0.075841 0)
(56.9699 0.0757589 0)
(56.9376 0.0756768 0)
(56.9054 0.0755948 0)
(56.8732 0.0755127 0)
(56.841 0.0754306 0)
(56.8088 0.0753485 0)
(56.7767 0.0752664 0)
(56.7445 0.0751843 0)
(56.7123 0.0751023 0)
(56.6802 0.0750204 0)
(56.648 0.0749385 0)
(56.6159 0.0748568 0)
(56.5838 0.0747751 0)
(56.5517 0.0746936 0)
(56.5196 0.0746121 0)
(56.4875 0.0745307 0)
(56.4554 0.0744493 0)
(56.4233 0.0743681 0)
(56.3912 0.074287 0)
(56.3592 0.0742062 0)
(56.3271 0.0741258 0)
(56.2951 0.0740458 0)
(56.263 0.0739663 0)
(56.231 0.0738873 0)
(56.199 0.073809 0)
(56.1669 0.0737313 0)
(56.1349 0.0736543 0)
(56.1029 0.0735783 0)
(56.0709 0.0735034 0)
(56.0389 0.0734299 0)
(56.0069 0.0733584 0)
(55.9749 0.0732894 0)
(55.943 0.0732237 0)
(55.911 0.0731622 0)
(55.879 0.0731059 0)
(55.847 0.0730562 0)
(55.8149 0.0730153 0)
(55.7829 0.0729861 0)
(55.7508 0.0729725 0)
(55.7187 0.0729815 0)
(55.6865 0.0730192 0)
(55.6543 0.0731089 0)
(55.6218 0.0732386 0)
(55.5898 0.0735413 0)
(55.5554 0.0737478 0)
(55.5285 0.0747735 0)
(55.4777 0.0743714 0)
(51.2446 0.00429243 0)
(85.6496 0.0221456 0)
(72.832 0.0360046 0)
(60.2177 0.0403303 0)
(59.7052 0.040601 0)
(63.2466 0.0420511 0)
(64.7296 0.0448355 0)
(64.2595 0.0471753 0)
(63.6599 0.0484195 0)
(63.5857 0.0490598 0)
(63.7498 0.0495962 0)
(63.8499 0.0501094 0)
(63.8554 0.0505015 0)
(63.8438 0.0507397 0)
(63.8535 0.0508696 0)
(63.8765 0.0509395 0)
(63.8983 0.050969 0)
(63.9157 0.0509617 0)
(63.9318 0.0509224 0)
(63.9487 0.0508592 0)
(63.9662 0.0507794 0)
(63.9838 0.0506881 0)
(64.0012 0.0505885 0)
(64.0185 0.0504831 0)
(64.0357 0.0503742 0)
(64.053 0.0502636 0)
(64.0702 0.0501528 0)
(64.0874 0.0500429 0)
(64.1046 0.0499346 0)
(64.1217 0.0498286 0)
(64.1388 0.0497255 0)
(64.1558 0.0496256 0)
(64.1728 0.0495291 0)
(64.1898 0.0494364 0)
(64.2067 0.0493474 0)
(64.2236 0.0492624 0)
(64.2404 0.0491812 0)
(64.2572 0.049104 0)
(64.274 0.0490307 0)
(64.2907 0.0489612 0)
(64.3074 0.0488956 0)
(64.324 0.0488336 0)
(64.3406 0.0487753 0)
(64.3571 0.0487206 0)
(64.3736 0.0486693 0)
(64.3901 0.0486214 0)
(64.4065 0.0485767 0)
(64.4228 0.0485353 0)
(64.4391 0.0484968 0)
(64.4554 0.0484614 0)
(64.4716 0.0484288 0)
(64.4878 0.0483989 0)
(64.5039 0.0483718 0)
(64.52 0.0483472 0)
(64.5361 0.0483251 0)
(64.5521 0.0483054 0)
(64.568 0.048288 0)
(64.584 0.0482728 0)
(64.5998 0.0482598 0)
(64.6157 0.0482488 0)
(64.6314 0.0482399 0)
(64.6472 0.0482328 0)
(64.6629 0.0482276 0)
(64.6785 0.0482242 0)
(64.6941 0.0482225 0)
(64.7097 0.0482225 0)
(64.7252 0.048224 0)
(64.7407 0.0482271 0)
(64.7561 0.0482317 0)
(64.7715 0.0482376 0)
(64.7868 0.048245 0)
(64.8021 0.0482537 0)
(64.8174 0.0482636 0)
(64.8326 0.0482748 0)
(64.8477 0.0482871 0)
(64.8629 0.0483006 0)
(64.8779 0.0483152 0)
(64.893 0.0483309 0)
(64.908 0.0483475 0)
(64.9229 0.0483652 0)
(64.9378 0.0483838 0)
(64.9527 0.0484033 0)
(64.9675 0.0484237 0)
(64.9823 0.0484449 0)
(64.997 0.048467 0)
(65.0117 0.0484899 0)
(65.0263 0.0485135 0)
(65.0409 0.0485379 0)
(65.0555 0.0485629 0)
(65.07 0.0485887 0)
(65.0845 0.0486151 0)
(65.0989 0.0486422 0)
(65.1133 0.0486699 0)
(65.1277 0.0486982 0)
(65.142 0.048727 0)
(65.1562 0.0487564 0)
(65.1704 0.0487864 0)
(65.1846 0.0488169 0)
(65.1988 0.0488478 0)
(65.2128 0.0488793 0)
(65.2269 0.0489112 0)
(65.2409 0.0489436 0)
(65.2549 0.0489764 0)
(65.2688 0.0490097 0)
(65.2827 0.0490433 0)
(65.2965 0.0490774 0)
(65.3103 0.0491118 0)
(65.3241 0.0491466 0)
(65.3378 0.0491818 0)
(65.3515 0.0492173 0)
(65.3651 0.0492531 0)
(65.3787 0.0492893 0)
(65.3922 0.0493258 0)
(65.4057 0.0493626 0)
(65.4192 0.0493997 0)
(65.4326 0.049437 0)
(65.446 0.0494747 0)
(65.4594 0.0495126 0)
(65.4727 0.0495507 0)
(65.4859 0.0495891 0)
(65.4991 0.0496278 0)
(65.5123 0.0496667 0)
(65.5255 0.0497058 0)
(65.5386 0.0497451 0)
(65.5516 0.0497847 0)
(65.5646 0.0498244 0)
(65.5776 0.0498644 0)
(65.5905 0.0499045 0)
(65.6034 0.0499448 0)
(65.6163 0.0499853 0)
(65.6291 0.050026 0)
(65.6419 0.0500669 0)
(65.6546 0.0501079 0)
(65.6673 0.0501491 0)
(65.6799 0.0501904 0)
(65.6926 0.0502319 0)
(65.7051 0.0502735 0)
(65.7177 0.0503152 0)
(65.7302 0.0503571 0)
(65.7426 0.0503992 0)
(65.755 0.0504413 0)
(65.7674 0.0504836 0)
(65.7797 0.050526 0)
(65.792 0.0505685 0)
(65.8043 0.0506111 0)
(65.8165 0.0506538 0)
(65.8287 0.0506966 0)
(65.8408 0.0507396 0)
(65.8529 0.0507826 0)
(65.8649 0.0508257 0)
(65.877 0.0508689 0)
(65.8889 0.0509122 0)
(65.9009 0.0509556 0)
(65.9128 0.0509991 0)
(65.9246 0.0510426 0)
(65.9365 0.0510862 0)
(65.9482 0.0511299 0)
(65.96 0.0511737 0)
(65.9717 0.0512175 0)
(65.9834 0.0512614 0)
(65.995 0.0513053 0)
(66.0066 0.0513494 0)
(66.0181 0.0513934 0)
(66.0296 0.0514376 0)
(66.0411 0.0514817 0)
(66.0526 0.051526 0)
(66.064 0.0515703 0)
(66.0753 0.0516146 0)
(66.0866 0.051659 0)
(66.0979 0.0517034 0)
(66.1092 0.0517479 0)
(66.1204 0.0517924 0)
(66.1315 0.0518369 0)
(66.1427 0.0518815 0)
(66.1538 0.0519261 0)
(66.1648 0.0519708 0)
(66.1758 0.0520154 0)
(66.1868 0.0520602 0)
(66.1977 0.0521049 0)
(66.2086 0.0521497 0)
(66.2195 0.0521945 0)
(66.2303 0.0522393 0)
(66.2411 0.0522842 0)
(66.2519 0.052329 0)
(66.2626 0.0523739 0)
(66.2733 0.0524188 0)
(66.2839 0.0524637 0)
(66.2945 0.0525086 0)
(66.3051 0.0525536 0)
(66.3156 0.0525986 0)
(66.3261 0.0526436 0)
(66.3366 0.0526886 0)
(66.347 0.0527337 0)
(66.3574 0.0527787 0)
(66.3677 0.0528237 0)
(66.378 0.0528688 0)
(66.3883 0.0529138 0)
(66.3985 0.0529589 0)
(66.4087 0.0530039 0)
(66.4189 0.053049 0)
(66.429 0.0530941 0)
(66.4391 0.0531393 0)
(66.4491 0.0531845 0)
(66.4592 0.0532297 0)
(66.4691 0.053275 0)
(66.4791 0.0533202 0)
(66.489 0.0533655 0)
(66.4988 0.0534108 0)
(66.5087 0.0534561 0)
(66.5185 0.0535014 0)
(66.5282 0.0535467 0)
(66.538 0.0535921 0)
(66.5477 0.0536376 0)
(66.5573 0.0536832 0)
(66.5669 0.053729 0)
(66.5765 0.0537749 0)
(66.586 0.0538209 0)
(66.5956 0.053867 0)
(66.605 0.0539133 0)
(66.6145 0.0539596 0)
(66.6239 0.0540062 0)
(66.6332 0.0540529 0)
(66.6426 0.0541 0)
(66.6519 0.0541474 0)
(66.6611 0.0541954 0)
(66.6703 0.0542439 0)
(66.6795 0.0542932 0)
(66.6887 0.0543432 0)
(66.6978 0.0543941 0)
(66.7069 0.054446 0)
(66.7159 0.0544991 0)
(66.725 0.0545536 0)
(66.7339 0.05461 0)
(66.7429 0.0546688 0)
(66.7518 0.0547307 0)
(66.7607 0.0547964 0)
(66.7695 0.054867 0)
(66.7783 0.0549437 0)
(66.7871 0.0550282 0)
(66.7959 0.0551226 0)
(66.8046 0.0552298 0)
(66.8133 0.0553535 0)
(66.822 0.0555 0)
(66.8307 0.0556743 0)
(66.8394 0.0558944 0)
(66.8482 0.0561488 0)
(66.8569 0.0565355 0)
(66.8662 0.0568372 0)
(66.8739 0.057724 0)
(66.8879 0.0575227 0)
(51.243 0.000483126 0)
(85.6372 0.00193694 0)
(72.7962 0.00350277 0)
(60.1623 0.00537273 0)
(59.6397 0.00698208 0)
(63.1729 0.00816263 0)
(64.6438 0.00907723 0)
(64.1583 0.00986447 0)
(63.5432 0.0105509 0)
(63.4544 0.0111435 0)
(63.6044 0.0116729 0)
(63.6899 0.012163 0)
(63.6804 0.0126192 0)
(63.6536 0.0130428 0)
(63.6481 0.0134393 0)
(63.6559 0.0138159 0)
(63.6625 0.0141763 0)
(63.6645 0.0145218 0)
(63.6653 0.0148535 0)
(63.6668 0.0151726 0)
(63.669 0.0154806 0)
(63.6712 0.0157784 0)
(63.6732 0.0160668 0)
(63.6751 0.0163461 0)
(63.6771 0.0166171 0)
(63.679 0.0168803 0)
(63.681 0.0171361 0)
(63.6829 0.0173848 0)
(63.6849 0.017627 0)
(63.6868 0.0178629 0)
(63.6887 0.0180929 0)
(63.6907 0.0183172 0)
(63.6926 0.0185362 0)
(63.6946 0.0187502 0)
(63.6965 0.0189592 0)
(63.6985 0.0191637 0)
(63.7005 0.0193639 0)
(63.7025 0.0195598 0)
(63.7044 0.0197518 0)
(63.7064 0.01994 0)
(63.7084 0.0201246 0)
(63.7104 0.0203056 0)
(63.7125 0.0204834 0)
(63.7145 0.020658 0)
(63.7165 0.0208296 0)
(63.7186 0.0209983 0)
(63.7206 0.0211641 0)
(63.7227 0.0213273 0)
(63.7248 0.0214879 0)
(63.7269 0.0216461 0)
(63.729 0.0218018 0)
(63.7311 0.0219553 0)
(63.7332 0.0221065 0)
(63.7354 0.0222556 0)
(63.7375 0.0224027 0)
(63.7397 0.0225478 0)
(63.7418 0.022691 0)
(63.744 0.0228323 0)
(63.7462 0.0229719 0)
(63.7484 0.0231097 0)
(63.7506 0.0232458 0)
(63.7529 0.0233804 0)
(63.7551 0.0235134 0)
(63.7574 0.0236448 0)
(63.7596 0.0237748 0)
(63.7619 0.0239034 0)
(63.7642 0.0240306 0)
(63.7665 0.0241565 0)
(63.7688 0.024281 0)
(63.7711 0.0244043 0)
(63.7735 0.0245264 0)
(63.7758 0.0246473 0)
(63.7782 0.024767 0)
(63.7805 0.0248856 0)
(63.7829 0.0250031 0)
(63.7853 0.0251196 0)
(63.7877 0.025235 0)
(63.7902 0.0253494 0)
(63.7926 0.0254628 0)
(63.795 0.0255752 0)
(63.7975 0.0256867 0)
(63.8 0.0257974 0)
(63.8024 0.0259071 0)
(63.8049 0.0260159 0)
(63.8074 0.0261239 0)
(63.8099 0.0262311 0)
(63.8125 0.0263375 0)
(63.815 0.0264431 0)
(63.8176 0.0265479 0)
(63.8201 0.0266519 0)
(63.8227 0.0267552 0)
(63.8253 0.0268578 0)
(63.8279 0.0269597 0)
(63.8305 0.0270609 0)
(63.8331 0.0271615 0)
(63.8358 0.0272613 0)
(63.8384 0.0273605 0)
(63.8411 0.0274591 0)
(63.8437 0.0275571 0)
(63.8464 0.0276544 0)
(63.8491 0.0277512 0)
(63.8518 0.0278473 0)
(63.8545 0.0279429 0)
(63.8573 0.0280379 0)
(63.86 0.0281324 0)
(63.8628 0.0282263 0)
(63.8655 0.0283196 0)
(63.8683 0.0284125 0)
(63.8711 0.0285048 0)
(63.8739 0.0285966 0)
(63.8767 0.0286879 0)
(63.8795 0.0287788 0)
(63.8824 0.0288691 0)
(63.8852 0.0289589 0)
(63.8881 0.0290483 0)
(63.8909 0.0291373 0)
(63.8938 0.0292257 0)
(63.8967 0.0293137 0)
(63.8996 0.0294013 0)
(63.9025 0.0294884 0)
(63.9055 0.0295751 0)
(63.9084 0.0296614 0)
(63.9113 0.0297473 0)
(63.9143 0.0298327 0)
(63.9173 0.0299177 0)
(63.9203 0.0300024 0)
(63.9233 0.0300866 0)
(63.9263 0.0301704 0)
(63.9293 0.0302539 0)
(63.9323 0.030337 0)
(63.9354 0.0304196 0)
(63.9384 0.030502 0)
(63.9415 0.0305839 0)
(63.9446 0.0306655 0)
(63.9477 0.0307467 0)
(63.9507 0.0308276 0)
(63.9539 0.0309081 0)
(63.957 0.0309882 0)
(63.9601 0.0310681 0)
(63.9633 0.0311475 0)
(63.9664 0.0312267 0)
(63.9696 0.0313055 0)
(63.9728 0.0313839 0)
(63.9759 0.0314621 0)
(63.9791 0.0315399 0)
(63.9824 0.0316174 0)
(63.9856 0.0316945 0)
(63.9888 0.0317714 0)
(63.9921 0.0318479 0)
(63.9953 0.0319242 0)
(63.9986 0.0320001 0)
(64.0019 0.0320757 0)
(64.0052 0.032151 0)
(64.0085 0.032226 0)
(64.0118 0.0323007 0)
(64.0151 0.0323752 0)
(64.0184 0.0324493 0)
(64.0218 0.0325232 0)
(64.0251 0.0325967 0)
(64.0285 0.03267 0)
(64.0319 0.032743 0)
(64.0352 0.0328157 0)
(64.0386 0.0328881 0)
(64.0421 0.0329603 0)
(64.0455 0.0330322 0)
(64.0489 0.0331038 0)
(64.0523 0.0331751 0)
(64.0558 0.0332462 0)
(64.0593 0.033317 0)
(64.0627 0.0333876 0)
(64.0662 0.0334579 0)
(64.0697 0.0335279 0)
(64.0732 0.0335977 0)
(64.0767 0.0336672 0)
(64.0803 0.0337365 0)
(64.0838 0.0338055 0)
(64.0873 0.0338742 0)
(64.0909 0.0339428 0)
(64.0945 0.034011 0)
(64.098 0.0340791 0)
(64.1016 0.0341468 0)
(64.1052 0.0342144 0)
(64.1088 0.0342817 0)
(64.1125 0.0343488 0)
(64.1161 0.0344156 0)
(64.1197 0.0344822 0)
(64.1234 0.0345485 0)
(64.127 0.0346147 0)
(64.1307 0.0346806 0)
(64.1344 0.0347462 0)
(64.1381 0.0348117 0)
(64.1418 0.0348769 0)
(64.1455 0.0349419 0)
(64.1492 0.0350068 0)
(64.153 0.0350713 0)
(64.1567 0.0351357 0)
(64.1605 0.0351999 0)
(64.1642 0.0352638 0)
(64.168 0.0353276 0)
(64.1718 0.0353911 0)
(64.1756 0.0354544 0)
(64.1794 0.0355176 0)
(64.1832 0.0355805 0)
(64.187 0.0356433 0)
(64.1908 0.0357059 0)
(64.1947 0.0357683 0)
(64.1985 0.0358305 0)
(64.2024 0.0358926 0)
(64.2063 0.0359545 0)
(64.2102 0.0360163 0)
(64.2141 0.0360779 0)
(64.218 0.0361393 0)
(64.2219 0.0362006 0)
(64.2258 0.0362619 0)
(64.2297 0.036323 0)
(64.2337 0.036384 0)
(64.2376 0.036445 0)
(64.2416 0.0365059 0)
(64.2455 0.0365668 0)
(64.2495 0.0366276 0)
(64.2535 0.0366886 0)
(64.2575 0.0367495 0)
(64.2615 0.0368106 0)
(64.2655 0.0368719 0)
(64.2696 0.0369334 0)
(64.2736 0.0369951 0)
(64.2776 0.0370572 0)
(64.2817 0.0371196 0)
(64.2858 0.0371827 0)
(64.2898 0.0372464 0)
(64.2939 0.037311 0)
(64.298 0.0373767 0)
(64.3021 0.0374437 0)
(64.3062 0.0375123 0)
(64.3103 0.0375829 0)
(64.3145 0.0376558 0)
(64.3186 0.0377315 0)
(64.3227 0.0378105 0)
(64.3269 0.0378935 0)
(64.3311 0.0379811 0)
(64.3353 0.0380742 0)
(64.3395 0.0381736 0)
(64.3437 0.0382795 0)
(64.3479 0.0383918 0)
(64.3522 0.0385077 0)
(64.3565 0.0386261 0)
(64.3608 0.0387245 0)
(64.3654 0.038824 0)
(64.369 0.0387773 0)
(64.376 0.0388746 0)
(51.2454 0.000893334 0)
(85.6442 0.0055197 0)
(72.8065 0.0106487 0)
(60.1723 0.0147765 0)
(59.6476 0.0177809 0)
(63.1792 0.0201508 0)
(64.6496 0.0223185 0)
(64.1639 0.0243913 0)
(63.5484 0.0262736 0)
(63.459 0.0278933 0)
(63.6083 0.0292745 0)
(63.6933 0.0304775 0)
(63.6834 0.0315396 0)
(63.656 0.0324732 0)
(63.65 0.0332862 0)
(63.6574 0.0339921 0)
(63.6635 0.0346062 0)
(63.6651 0.0351413 0)
(63.6654 0.035607 0)
(63.6665 0.0360117 0)
(63.6683 0.0363628 0)
(63.6701 0.0366672 0)
(63.6717 0.0369307 0)
(63.6732 0.0371585 0)
(63.6747 0.0373551 0)
(63.6762 0.0375242 0)
(63.6778 0.0376693 0)
(63.6793 0.0377934 0)
(63.6808 0.0378991 0)
(63.6824 0.0379887 0)
(63.6839 0.0380642 0)
(63.6854 0.0381274 0)
(63.687 0.0381797 0)
(63.6885 0.0382226 0)
(63.69 0.0382572 0)
(63.6916 0.0382847 0)
(63.6931 0.0383058 0)
(63.6946 0.0383214 0)
(63.6962 0.0383322 0)
(63.6977 0.0383389 0)
(63.6992 0.038342 0)
(63.7008 0.038342 0)
(63.7023 0.0383393 0)
(63.7039 0.0383343 0)
(63.7054 0.0383273 0)
(63.7069 0.0383186 0)
(63.7085 0.0383085 0)
(63.7101 0.0382972 0)
(63.7116 0.0382848 0)
(63.7132 0.0382717 0)
(63.7147 0.0382578 0)
(63.7163 0.0382435 0)
(63.7178 0.0382287 0)
(63.7194 0.0382136 0)
(63.721 0.0381982 0)
(63.7226 0.0381827 0)
(63.7241 0.0381672 0)
(63.7257 0.0381516 0)
(63.7273 0.038136 0)
(63.7289 0.0381205 0)
(63.7304 0.0381052 0)
(63.732 0.03809 0)
(63.7336 0.0380749 0)
(63.7352 0.0380601 0)
(63.7368 0.0380455 0)
(63.7384 0.0380311 0)
(63.74 0.038017 0)
(63.7416 0.0380032 0)
(63.7432 0.0379896 0)
(63.7448 0.0379763 0)
(63.7464 0.0379634 0)
(63.748 0.0379507 0)
(63.7496 0.0379383 0)
(63.7512 0.0379262 0)
(63.7528 0.0379144 0)
(63.7544 0.0379029 0)
(63.7561 0.0378917 0)
(63.7577 0.0378809 0)
(63.7593 0.0378703 0)
(63.7609 0.03786 0)
(63.7626 0.03785 0)
(63.7642 0.0378403 0)
(63.7658 0.0378309 0)
(63.7674 0.0378218 0)
(63.7691 0.037813 0)
(63.7707 0.0378044 0)
(63.7724 0.0377961 0)
(63.774 0.0377881 0)
(63.7756 0.0377803 0)
(63.7773 0.0377729 0)
(63.7789 0.0377656 0)
(63.7806 0.0377586 0)
(63.7822 0.0377519 0)
(63.7839 0.0377454 0)
(63.7855 0.0377392 0)
(63.7872 0.0377332 0)
(63.7888 0.0377274 0)
(63.7905 0.0377218 0)
(63.7922 0.0377165 0)
(63.7938 0.0377114 0)
(63.7955 0.0377065 0)
(63.7972 0.0377019 0)
(63.7988 0.0376974 0)
(63.8005 0.0376932 0)
(63.8022 0.0376891 0)
(63.8039 0.0376853 0)
(63.8055 0.0376816 0)
(63.8072 0.0376782 0)
(63.8089 0.0376749 0)
(63.8106 0.0376718 0)
(63.8123 0.0376689 0)
(63.814 0.0376662 0)
(63.8157 0.0376637 0)
(63.8173 0.0376613 0)
(63.819 0.0376591 0)
(63.8207 0.0376571 0)
(63.8224 0.0376553 0)
(63.8241 0.0376536 0)
(63.8258 0.0376521 0)
(63.8275 0.0376507 0)
(63.8292 0.0376495 0)
(63.831 0.0376485 0)
(63.8327 0.0376476 0)
(63.8344 0.0376469 0)
(63.8361 0.0376463 0)
(63.8378 0.0376458 0)
(63.8395 0.0376455 0)
(63.8412 0.0376454 0)
(63.843 0.0376454 0)
(63.8447 0.0376455 0)
(63.8464 0.0376458 0)
(63.8481 0.0376462 0)
(63.8499 0.0376467 0)
(63.8516 0.0376474 0)
(63.8533 0.0376482 0)
(63.8551 0.0376491 0)
(63.8568 0.0376501 0)
(63.8585 0.0376513 0)
(63.8603 0.0376526 0)
(63.862 0.037654 0)
(63.8638 0.0376556 0)
(63.8655 0.0376573 0)
(63.8673 0.037659 0)
(63.869 0.0376609 0)
(63.8708 0.037663 0)
(63.8725 0.0376651 0)
(63.8743 0.0376673 0)
(63.876 0.0376697 0)
(63.8778 0.0376722 0)
(63.8796 0.0376747 0)
(63.8813 0.0376774 0)
(63.8831 0.0376802 0)
(63.8849 0.0376831 0)
(63.8866 0.0376861 0)
(63.8884 0.0376892 0)
(63.8902 0.0376924 0)
(63.8919 0.0376957 0)
(63.8937 0.0376991 0)
(63.8955 0.0377027 0)
(63.8973 0.0377063 0)
(63.8991 0.03771 0)
(63.9009 0.0377138 0)
(63.9026 0.0377177 0)
(63.9044 0.0377216 0)
(63.9062 0.0377257 0)
(63.908 0.0377299 0)
(63.9098 0.0377342 0)
(63.9116 0.0377385 0)
(63.9134 0.037743 0)
(63.9152 0.0377475 0)
(63.917 0.0377521 0)
(63.9188 0.0377568 0)
(63.9206 0.0377616 0)
(63.9224 0.0377665 0)
(63.9243 0.0377715 0)
(63.9261 0.0377765 0)
(63.9279 0.0377817 0)
(63.9297 0.0377869 0)
(63.9315 0.0377922 0)
(63.9333 0.0377976 0)
(63.9352 0.0378031 0)
(63.937 0.0378086 0)
(63.9388 0.0378142 0)
(63.9407 0.0378199 0)
(63.9425 0.0378257 0)
(63.9443 0.0378316 0)
(63.9462 0.0378376 0)
(63.948 0.0378436 0)
(63.9498 0.0378497 0)
(63.9517 0.0378559 0)
(63.9535 0.0378622 0)
(63.9554 0.0378685 0)
(63.9572 0.0378749 0)
(63.9591 0.0378814 0)
(63.9609 0.037888 0)
(63.9628 0.0378946 0)
(63.9646 0.0379014 0)
(63.9665 0.0379082 0)
(63.9684 0.0379152 0)
(63.9702 0.0379222 0)
(63.9721 0.0379293 0)
(63.974 0.0379365 0)
(63.9758 0.0379438 0)
(63.9777 0.0379511 0)
(63.9796 0.0379585 0)
(63.9814 0.0379661 0)
(63.9833 0.0379737 0)
(63.9852 0.0379815 0)
(63.9871 0.0379894 0)
(63.989 0.0379975 0)
(63.9909 0.0380057 0)
(63.9927 0.038014 0)
(63.9946 0.0380225 0)
(63.9965 0.0380312 0)
(63.9984 0.03804 0)
(64.0003 0.0380489 0)
(64.0022 0.0380581 0)
(64.0041 0.0380674 0)
(64.006 0.038077 0)
(64.0079 0.038087 0)
(64.0098 0.0380973 0)
(64.0117 0.038108 0)
(64.0136 0.0381191 0)
(64.0156 0.0381307 0)
(64.0175 0.0381428 0)
(64.0194 0.0381554 0)
(64.0213 0.0381685 0)
(64.0232 0.0381824 0)
(64.0251 0.0381971 0)
(64.0271 0.0382127 0)
(64.029 0.0382295 0)
(64.0309 0.0382476 0)
(64.0329 0.0382672 0)
(64.0348 0.0382886 0)
(64.0367 0.038312 0)
(64.0387 0.0383375 0)
(64.0406 0.0383655 0)
(64.0426 0.0383962 0)
(64.0445 0.0384299 0)
(64.0465 0.038467 0)
(64.0484 0.0385076 0)
(64.0504 0.0385519 0)
(64.0524 0.0385995 0)
(64.0543 0.0386498 0)
(64.0563 0.0387005 0)
(64.0584 0.038751 0)
(64.0604 0.0387904 0)
(64.0625 0.0388341 0)
(64.0642 0.0388164 0)
(64.0673 0.0388927 0)
(51.2464 0.000615888 0)
(85.6462 0.00328495 0)
(72.8068 0.00577668 0)
(60.1704 0.00747469 0)
(59.6445 0.00864139 0)
(63.1758 0.00964776 0)
(64.646 0.010621 0)
(64.1599 0.0115121 0)
(63.5438 0.0122584 0)
(63.454 0.0128577 0)
(63.603 0.0133482 0)
(63.6879 0.0137648 0)
(63.6778 0.0141229 0)
(63.6503 0.0144272 0)
(63.6443 0.0146835 0)
(63.6516 0.0149005 0)
(63.6577 0.0150868 0)
(63.6593 0.0152486 0)
(63.6597 0.0153903 0)
(63.6608 0.0155154 0)
(63.6626 0.0156271 0)
(63.6645 0.0157282 0)
(63.6662 0.0158209 0)
(63.6677 0.0159069 0)
(63.6693 0.0159878 0)
(63.671 0.0160647 0)
(63.6726 0.0161386 0)
(63.6742 0.0162102 0)
(63.6759 0.0162803 0)
(63.6775 0.0163493 0)
(63.6791 0.0164177 0)
(63.6807 0.0164858 0)
(63.6824 0.0165539 0)
(63.684 0.0166221 0)
(63.6856 0.0166906 0)
(63.6872 0.0167596 0)
(63.6888 0.0168291 0)
(63.6905 0.0168992 0)
(63.6921 0.0169699 0)
(63.6937 0.0170413 0)
(63.6953 0.0171133 0)
(63.6969 0.017186 0)
(63.6986 0.0172593 0)
(63.7002 0.0173333 0)
(63.7018 0.0174079 0)
(63.7034 0.0174832 0)
(63.7051 0.0175589 0)
(63.7067 0.0176352 0)
(63.7083 0.017712 0)
(63.71 0.0177893 0)
(63.7116 0.017867 0)
(63.7132 0.0179451 0)
(63.7149 0.0180236 0)
(63.7165 0.0181025 0)
(63.7182 0.0181816 0)
(63.7198 0.018261 0)
(63.7214 0.0183407 0)
(63.7231 0.0184206 0)
(63.7247 0.0185006 0)
(63.7264 0.0185809 0)
(63.7281 0.0186613 0)
(63.7297 0.0187418 0)
(63.7314 0.0188224 0)
(63.733 0.0189031 0)
(63.7347 0.0189838 0)
(63.7363 0.0190646 0)
(63.738 0.0191454 0)
(63.7397 0.0192262 0)
(63.7413 0.019307 0)
(63.743 0.0193877 0)
(63.7447 0.0194684 0)
(63.7464 0.0195491 0)
(63.748 0.0196297 0)
(63.7497 0.0197101 0)
(63.7514 0.0197905 0)
(63.7531 0.0198708 0)
(63.7548 0.019951 0)
(63.7565 0.020031 0)
(63.7582 0.0201109 0)
(63.7599 0.0201907 0)
(63.7615 0.0202703 0)
(63.7632 0.0203498 0)
(63.7649 0.0204291 0)
(63.7666 0.0205082 0)
(63.7683 0.0205871 0)
(63.7701 0.0206659 0)
(63.7718 0.0207444 0)
(63.7735 0.0208228 0)
(63.7752 0.0209009 0)
(63.7769 0.0209789 0)
(63.7786 0.0210566 0)
(63.7803 0.0211342 0)
(63.7821 0.0212115 0)
(63.7838 0.0212886 0)
(63.7855 0.0213655 0)
(63.7872 0.0214421 0)
(63.789 0.0215185 0)
(63.7907 0.0215947 0)
(63.7924 0.0216706 0)
(63.7942 0.0217464 0)
(63.7959 0.0218218 0)
(63.7976 0.0218971 0)
(63.7994 0.021972 0)
(63.8011 0.0220468 0)
(63.8029 0.0221213 0)
(63.8046 0.0221955 0)
(63.8064 0.0222695 0)
(63.8081 0.0223433 0)
(63.8099 0.0224168 0)
(63.8116 0.02249 0)
(63.8134 0.022563 0)
(63.8151 0.0226358 0)
(63.8169 0.0227083 0)
(63.8187 0.0227805 0)
(63.8204 0.0228525 0)
(63.8222 0.0229242 0)
(63.824 0.0229957 0)
(63.8258 0.0230669 0)
(63.8275 0.0231378 0)
(63.8293 0.0232085 0)
(63.8311 0.023279 0)
(63.8329 0.0233492 0)
(63.8347 0.0234191 0)
(63.8364 0.0234888 0)
(63.8382 0.0235582 0)
(63.84 0.0236273 0)
(63.8418 0.0236962 0)
(63.8436 0.0237649 0)
(63.8454 0.0238333 0)
(63.8472 0.0239014 0)
(63.849 0.0239693 0)
(63.8508 0.0240369 0)
(63.8526 0.0241043 0)
(63.8544 0.0241714 0)
(63.8562 0.0242383 0)
(63.858 0.0243049 0)
(63.8598 0.0243713 0)
(63.8616 0.0244374 0)
(63.8635 0.0245032 0)
(63.8653 0.0245688 0)
(63.8671 0.0246342 0)
(63.8689 0.0246993 0)
(63.8707 0.0247642 0)
(63.8726 0.0248288 0)
(63.8744 0.0248932 0)
(63.8762 0.0249573 0)
(63.878 0.0250212 0)
(63.8799 0.0250848 0)
(63.8817 0.0251482 0)
(63.8835 0.0252113 0)
(63.8854 0.0252742 0)
(63.8872 0.0253369 0)
(63.8891 0.0253993 0)
(63.8909 0.0254615 0)
(63.8928 0.0255235 0)
(63.8946 0.0255852 0)
(63.8964 0.0256466 0)
(63.8983 0.0257079 0)
(63.9002 0.0257689 0)
(63.902 0.0258296 0)
(63.9039 0.0258901 0)
(63.9057 0.0259504 0)
(63.9076 0.0260105 0)
(63.9094 0.0260703 0)
(63.9113 0.0261299 0)
(63.9132 0.0261893 0)
(63.915 0.0262484 0)
(63.9169 0.0263073 0)
(63.9188 0.026366 0)
(63.9207 0.0264245 0)
(63.9225 0.0264827 0)
(63.9244 0.0265407 0)
(63.9263 0.0265985 0)
(63.9282 0.0266561 0)
(63.93 0.0267134 0)
(63.9319 0.0267705 0)
(63.9338 0.0268275 0)
(63.9357 0.0268842 0)
(63.9376 0.0269406 0)
(63.9395 0.0269969 0)
(63.9414 0.0270529 0)
(63.9433 0.0271088 0)
(63.9452 0.0271644 0)
(63.9471 0.0272198 0)
(63.949 0.0272749 0)
(63.9509 0.0273299 0)
(63.9528 0.0273847 0)
(63.9547 0.0274393 0)
(63.9566 0.0274937 0)
(63.9585 0.0275479 0)
(63.9604 0.0276018 0)
(63.9623 0.0276556 0)
(63.9642 0.0277092 0)
(63.9661 0.0277625 0)
(63.968 0.0278157 0)
(63.97 0.0278687 0)
(63.9719 0.0279215 0)
(63.9738 0.0279741 0)
(63.9757 0.0280265 0)
(63.9776 0.0280788 0)
(63.9796 0.0281309 0)
(63.9815 0.0281828 0)
(63.9834 0.0282346 0)
(63.9853 0.0282862 0)
(63.9873 0.0283376 0)
(63.9892 0.0283888 0)
(63.9911 0.0284399 0)
(63.9931 0.0284908 0)
(63.995 0.0285417 0)
(63.997 0.0285924 0)
(63.9989 0.028643 0)
(64.0008 0.0286935 0)
(64.0028 0.0287439 0)
(64.0047 0.0287943 0)
(64.0067 0.0288446 0)
(64.0086 0.0288949 0)
(64.0106 0.0289451 0)
(64.0125 0.0289952 0)
(64.0145 0.0290454 0)
(64.0164 0.0290956 0)
(64.0184 0.0291459 0)
(64.0204 0.0291963 0)
(64.0223 0.0292469 0)
(64.0243 0.0292978 0)
(64.0262 0.0293489 0)
(64.0282 0.0294003 0)
(64.0302 0.0294522 0)
(64.0321 0.0295044 0)
(64.0341 0.0295572 0)
(64.0361 0.0296105 0)
(64.0381 0.0296645 0)
(64.04 0.0297193 0)
(64.042 0.0297751 0)
(64.044 0.029832 0)
(64.046 0.0298902 0)
(64.0479 0.0299498 0)
(64.0499 0.0300108 0)
(64.0519 0.0300734 0)
(64.0539 0.0301375 0)
(64.0559 0.0302031 0)
(64.0579 0.0302698 0)
(64.0599 0.0303375 0)
(64.0619 0.0304054 0)
(64.0639 0.0304726 0)
(64.066 0.0305379 0)
(64.068 0.0305994 0)
(64.07 0.0306544 0)
(64.0722 0.0307018 0)
(64.0739 0.0307334 0)
(64.077 0.0307646 0)
(51.2474 0.00049327 0)
(85.6486 0.00278373 0)
(72.8097 0.00515952 0)
(60.1732 0.00706918 0)
(59.6471 0.00867705 0)
(63.1784 0.0102201 0)
(64.6486 0.0117461 0)
(64.1625 0.0131997 0)
(63.5463 0.014539 0)
(63.4564 0.0157641 0)
(63.6054 0.0168923 0)
(63.6901 0.0179353 0)
(63.6799 0.018897 0)
(63.6524 0.0197796 0)
(63.6463 0.0205876 0)
(63.6535 0.021327 0)
(63.6594 0.022004 0)
(63.661 0.0226236 0)
(63.6613 0.0231903 0)
(63.6623 0.0237084 0)
(63.664 0.0241823 0)
(63.6658 0.0246157 0)
(63.6674 0.0250122 0)
(63.6689 0.0253752 0)
(63.6704 0.0257075 0)
(63.672 0.0260119 0)
(63.6735 0.0262909 0)
(63.6751 0.0265469 0)
(63.6766 0.0267818 0)
(63.6782 0.0269975 0)
(63.6797 0.0271958 0)
(63.6813 0.0273783 0)
(63.6828 0.0275462 0)
(63.6844 0.027701 0)
(63.6859 0.0278437 0)
(63.6875 0.0279754 0)
(63.6891 0.0280971 0)
(63.6906 0.0282097 0)
(63.6922 0.0283138 0)
(63.6938 0.0284103 0)
(63.6953 0.0284997 0)
(63.6969 0.0285827 0)
(63.6985 0.0286597 0)
(63.7001 0.0287313 0)
(63.7017 0.0287979 0)
(63.7032 0.02886 0)
(63.7048 0.0289177 0)
(63.7064 0.0289716 0)
(63.708 0.0290218 0)
(63.7096 0.0290687 0)
(63.7112 0.0291125 0)
(63.7128 0.0291534 0)
(63.7144 0.0291917 0)
(63.716 0.0292275 0)
(63.7176 0.029261 0)
(63.7193 0.0292924 0)
(63.7209 0.0293219 0)
(63.7225 0.0293494 0)
(63.7241 0.0293753 0)
(63.7257 0.0293995 0)
(63.7274 0.0294223 0)
(63.729 0.0294436 0)
(63.7306 0.0294636 0)
(63.7323 0.0294824 0)
(63.7339 0.0295 0)
(63.7356 0.0295166 0)
(63.7372 0.0295321 0)
(63.7388 0.0295467 0)
(63.7405 0.0295604 0)
(63.7422 0.0295732 0)
(63.7438 0.0295853 0)
(63.7455 0.0295966 0)
(63.7471 0.0296072 0)
(63.7488 0.0296171 0)
(63.7505 0.0296265 0)
(63.7521 0.0296352 0)
(63.7538 0.0296434 0)
(63.7555 0.029651 0)
(63.7572 0.0296582 0)
(63.7588 0.0296649 0)
(63.7605 0.0296712 0)
(63.7622 0.029677 0)
(63.7639 0.0296825 0)
(63.7656 0.0296876 0)
(63.7673 0.0296924 0)