/*--------------------------------*- C++ -*----------------------------------*\
| =========                 |                                                 |
| \\      /  F ield         | OpenFOAM: The Open Source CFD Toolbox           |
|  \\    /   O peration     | Version:  2406                                  |
|   \\  /    A nd           | Website:  www.openfoam.com                      |
|    \\/     M anipulation  |                                                 |
\*---------------------------------------------------------------------------*/
FoamFile
{
    version     2.0;
    format      ascii;
    arch        "LSB;label=32;scalar=64";
    class       volVectorField;
    location    "0.45";
    object      U;
}
// * * * * * * * * * * * * * * * * * * * * * * * * * * * * * * * * * * * * * //

dimensions      [0 1 -1 0 0 0 0];

internalField   nonuniform List<vector> 
6250
(
(42.7207 0.000168588 0)
(72.6781 0.000684393 0)
(62.6308 0.000982547 0)
(51.8791 0.00098629 0)
(51.1533 0.000924244 0)
(54.0614 0.000933738 0)
(55.3589 0.000985816 0)
(54.9882 0.00100861 0)
(54.4658 0.00084633 0)
(54.3756 0.000722379 0)
(54.4949 0.000726668 0)
(54.5667 0.000767418 0)
(54.5584 0.000793145 0)
(54.5334 0.00081613 0)
(54.5257 0.000849776 0)
(54.5295 0.000865614 0)
(54.5326 0.000827198 0)
(54.5322 0.000771339 0)
(54.5306 0.000746903 0)
(54.5296 0.00070152 0)
(54.5293 0.000609342 0)
(54.5291 0.00054151 0)
(54.5286 0.000509114 0)
(54.5281 0.000475119 0)
(54.5274 0.000465734 0)
(54.5268 0.000512317 0)
(54.5259 0.000574155 0)
(54.5252 0.00062389 0)
(54.5247 0.000703674 0)
(54.524 0.000814481 0)
(54.5235 0.000901046 0)
(54.523 0.000920478 0)
(54.5226 0.000866903 0)
(54.5221 0.000773002 0)
(54.5216 0.000690932 0)
(54.5211 0.000664881 0)
(54.5206 0.000693725 0)
(54.52 0.000729651 0)
(54.5194 0.000745228 0)
(54.519 0.000771619 0)
(54.5184 0.000828084 0)
(54.5177 0.000871425 0)
(54.5169 0.000873039 0)
(54.5163 0.00088685 0)
(54.5155 0.000975738 0)
(54.5147 0.00111404 0)
(54.5138 0.00121596 0)
(54.513 0.0012246 0)
(54.5122 0.00115537 0)
(54.5116 0.00107429 0)
(54.5109 0.00103545 0)
(54.5102 0.00103315 0)
(54.5095 0.0010196 0)
(54.5088 0.000972369 0)
(54.5082 0.000916939 0)
(54.5075 0.000878941 0)
(54.5068 0.000858196 0)
(54.5062 0.000862819 0)
(54.5056 0.000921506 0)
(54.505 0.00102921 0)
(54.5042 0.00111726 0)
(54.5034 0.00111764 0)
(54.5027 0.0010368 0)
(54.502 0.000938632 0)
(54.5014 0.000869895 0)
(54.5007 0.000833083 0)
(54.5 0.000821359 0)
(54.4994 0.000842088 0)
(54.4987 0.000895542 0)
(54.498 0.000953739 0)
(54.4972 0.000980803 0)
(54.4965 0.000970783 0)
(54.4959 0.000953657 0)
(54.4953 0.000960268 0)
(54.4947 0.000986268 0)
(54.494 0.000996184 0)
(54.4934 0.000962006 0)
(54.4929 0.000891219 0)
(54.4924 0.000814629 0)
(54.4919 0.000752453 0)
(54.4914 0.000697235 0)
(54.491 0.000629204 0)
(54.4906 0.000544517 0)
(54.4902 0.000464958 0)
(54.4899 0.00041866 0)
(54.4896 0.000411667 0)
(54.4893 0.000420277 0)
(54.489 0.000413084 0)
(54.4888 0.000380618 0)
(54.4886 0.000341329 0)
(54.4884 0.000316031 0)
(54.4883 0.000301847 0)
(54.4881 0.000274911 0)
(54.4879 0.000216925 0)
(54.4878 0.000141893 0)
(54.4878 8.53111e-05 0)
(54.4877 6.18918e-05 0)
(54.4876 5.36063e-05 0)
(54.4875 3.1371e-05 0)
(54.4874 -1.02792e-05 0)
(54.4874 -4.77953e-05 0)
(54.4874 -6.35783e-05 0)
(54.4873 -6.6909e-05 0)
(54.4872 -7.93372e-05 0)
(54.4872 -0.000107698 0)
(54.4871 -0.000137286 0)
(54.4871 -0.000153531 0)
(54.4871 -0.000162159 0)
(54.487 -0.000181778 0)
(54.4869 -0.000218518 0)
(54.4869 -0.000256785 0)
(54.4869 -0.000276825 0)
(54.4869 -0.000278994 0)
(54.4868 -0.000284623 0)
(54.4868 -0.000306828 0)
(54.4867 -0.000332816 0)
(54.4867 -0.000342728 0)
(54.4867 -0.000333973 0)
(54.4866 -0.000324775 0)
(54.4866 -0.000331893 0)
(54.4866 -0.000348882 0)
(54.4866 -0.000357363 0)
(54.4865 -0.000346288 0)
(54.4865 -0.000321696 0)
(54.4865 -0.000298015 0)
(54.4865 -0.000287723 0)
(54.4865 -0.000288891 0)
(54.4864 -0.000293384 0)
(54.4864 -0.000294586 0)
(54.4864 -0.000291735 0)
(54.4864 -0.00029051 0)
(54.4864 -0.000295543 0)
(54.4864 -0.000305577 0)
(54.4864 -0.000314708 0)
(54.4864 -0.000322267 0)
(54.4864 -0.000332548 0)
(54.4864 -0.000353842 0)
(54.4864 -0.000382764 0)
(54.4864 -0.000409621 0)
(54.4864 -0.00042371 0)
(54.4864 -0.000429224 0)
(54.4864 -0.000436007 0)
(54.4864 -0.000448866 0)
(54.4864 -0.000462835 0)
(54.4864 -0.000467962 0)
(54.4864 -0.000466992 0)
(54.4864 -0.000471082 0)
(54.4865 -0.000489547 0)
(54.4865 -0.000521937 0)
(54.4866 -0.000555568 0)
(54.4866 -0.000575191 0)
(54.4867 -0.000574131 0)
(54.4867 -0.000564417 0)
(54.4868 -0.000566815 0)
(54.4868 -0.000589774 0)
(54.4868 -0.000626423 0)
(54.4869 -0.000658995 0)
(54.487 -0.000671025 0)
(54.4871 -0.000657226 0)
(54.4872 -0.000621705 0)
(54.4873 -0.000571216 0)
(54.4873 -0.000509413 0)
(54.4874 -0.000439516 0)
(54.4874 -0.000367805 0)
(54.4875 -0.000299374 0)
(54.4875 -0.000230497 0)
(54.4876 -0.000149936 0)
(54.4878 -5.26688e-05 0)
(54.4878 4.93818e-05 0)
(54.4879 0.000133767 0)
(54.488 0.000188539 0)
(54.488 0.000224208 0)
(54.4881 0.000258685 0)
(54.4882 0.000295916 0)
(54.4884 0.00031852 0)
(54.4885 0.000304931 0)
(54.4887 0.0002551 0)
(54.4889 0.0001947 0)
(54.4892 0.00015514 0)
(54.4894 0.000148343 0)
(54.4896 0.000159806 0)
(54.4898 0.000165146 0)
(54.49 0.000151095 0)
(54.4901 0.000122879 0)
(54.4903 9.58438e-05 0)
(54.4905 8.16287e-05 0)
(54.4906 8.01705e-05 0)
(54.4908 8.32288e-05 0)
(54.4909 8.36438e-05 0)
(54.491 8.06039e-05 0)
(54.4911 7.81477e-05 0)
(54.4911 7.94593e-05 0)
(54.4912 8.20898e-05 0)
(54.4912 7.96616e-05 0)
(54.4912 6.79929e-05 0)
(54.4912 4.93974e-05 0)
(54.4913 3.0315e-05 0)
(54.4913 1.6515e-05 0)
(54.4913 9.11311e-06 0)
(54.4914 1.04118e-05 0)
(54.4914 2.45883e-05 0)
(54.4913 4.89106e-05 0)
(54.4913 7.49325e-05 0)
(54.4912 9.12518e-05 0)
(54.4911 9.23619e-05 0)
(54.491 8.52806e-05 0)
(54.4909 8.32306e-05 0)
(54.4908 9.01221e-05 0)
(54.4908 9.42245e-05 0)
(54.4907 7.81086e-05 0)
(54.4907 4.22624e-05 0)
(54.4907 6.76003e-06 0)
(54.4907 -9.89064e-06 0)
(54.4907 -7.24269e-07 0)
(54.4907 2.29104e-05 0)
(54.4906 4.31689e-05 0)
(54.4906 5.01364e-05 0)
(54.4905 4.72005e-05 0)
(54.4905 4.35281e-05 0)
(54.4904 4.4976e-05 0)
(54.4904 5.06248e-05 0)
(54.4903 5.53978e-05 0)
(54.4903 5.33359e-05 0)
(54.4903 4.14242e-05 0)
(54.4903 2.5163e-05 0)
(54.4903 1.19299e-05 0)
(54.4903 2.99605e-06 0)
(54.4903 4.73101e-06 0)
(54.4903 2.5326e-05 0)
(54.4903 5.51853e-05 0)
(54.4903 7.35616e-05 0)
(54.4903 6.51081e-05 0)
(54.4902 4.23172e-05 0)
(54.4902 3.61372e-05 0)
(54.4902 6.53831e-05 0)
(54.4901 0.000117778 0)
(54.49 0.000154493 0)
(54.4899 0.000140803 0)
(54.4899 8.18862e-05 0)
(54.4899 1.94303e-05 0)
(54.4899 -1.36494e-05 0)
(54.4899 -1.22255e-05 0)
(54.49 4.66659e-06 0)
(54.49 1.25584e-05 0)
(54.49 1.17477e-06 0)
(54.4901 -2.2149e-05 0)
(54.4901 -4.49051e-05 0)
(54.4901 -5.86938e-05 0)
(54.4902 -6.99277e-05 0)
(54.4902 -8.10004e-05 0)
(42.7206 9.3182e-05 0)
(72.6805 0.00047698 0)
(62.6349 0.000786816 0)
(51.885 0.000750249 0)
(51.1605 0.000648368 0)
(54.0702 0.000594663 0)
(55.3684 0.000532837 0)
(54.9999 0.000488782 0)
(54.4779 0.000371013 0)
(54.3884 0.000280628 0)
(54.5087 0.000271607 0)
(54.5812 0.000306346 0)
(54.5735 0.000349235 0)
(54.5495 0.00038998 0)
(54.5429 0.000441083 0)
(54.5479 0.000483135 0)
(54.5521 0.000455638 0)
(54.5523 0.000379136 0)
(54.5515 0.000375548 0)
(54.5512 0.000440619 0)
(54.5512 0.000468755 0)
(54.5515 0.000495531 0)
(54.5517 0.000571006 0)
(54.5518 0.00063818 0)
(54.5519 0.000698671 0)
(54.5524 0.00076157 0)
(54.5528 0.000768496 0)
(54.5531 0.000667391 0)
(54.5533 0.000507293 0)
(54.5536 0.000348678 0)
(54.5539 0.000216544 0)
(54.5542 0.000135986 0)
(54.5545 0.000126046 0)
(54.5548 0.000173916 0)
(54.5549 0.000235499 0)
(54.5551 0.000295285 0)
(54.5554 0.000361841 0)
(54.5556 0.000398788 0)
(54.5557 0.000370224 0)
(54.5559 0.000330227 0)
(54.5563 0.000356317 0)
(54.5567 0.000431055 0)
(54.5571 0.000476272 0)
(54.5574 0.000467958 0)
(54.5579 0.000445875 0)
(54.5586 0.000442556 0)
(54.5593 0.000451972 0)
(54.5598 0.000449065 0)
(54.5602 0.000415898 0)
(54.5606 0.000362826 0)
(54.561 0.000328541 0)
(54.5614 0.000331485 0)
(54.5619 0.000345159 0)
(54.5624 0.000349591 0)
(54.5628 0.000370346 0)
(54.5632 0.000421746 0)
(54.5634 0.000453099 0)
(54.5636 0.000411668 0)
(54.5638 0.000329871 0)
(54.5643 0.000290493 0)
(54.5649 0.000319509 0)
(54.5655 0.00036989 0)
(54.566 0.000404873 0)
(54.5664 0.000437797 0)
(54.5667 0.000482779 0)
(54.567 0.000516741 0)
(54.5674 0.000514155 0)
(54.5677 0.000488478 0)
(54.568 0.000472015 0)
(54.5684 0.000469925 0)
(54.5688 0.000456314 0)
(54.5691 0.00041181 0)
(54.5695 0.00034833 0)
(54.5698 0.000294614 0)
(54.5701 0.000266508 0)
(54.5705 0.000256397 0)
(54.5709 0.000248761 0)
(54.5712 0.000239528 0)
(54.5714 0.000237414 0)
(54.5716 0.000249886 0)
(54.5718 0.000271624 0)
(54.572 0.000287115 0)
(54.5721 0.000283833 0)
(54.572 0.000263091 0)
(54.572 0.000237829 0)
(54.5719 0.000218126 0)
(54.572 0.000199132 0)
(54.572 0.000167339 0)
(54.5719 0.000120517 0)
(54.5718 7.64678e-05 0)
(54.5717 5.66148e-05 0)
(54.5716 6.35061e-05 0)
(54.5716 7.84034e-05 0)
(54.5715 8.10177e-05 0)
(54.5713 7.31484e-05 0)
(54.5711 7.65143e-05 0)
(54.5709 0.000103463 0)
(54.5708 0.000141629 0)
(54.5706 0.000164963 0)
(54.5703 0.000163493 0)
(54.5701 0.000155816 0)
(54.5699 0.000163916 0)
(54.5697 0.000187701 0)
(54.5696 0.000208512 0)
(54.5693 0.000214266 0)
(54.5691 0.000215991 0)
(54.5689 0.000234598 0)
(54.5687 0.000273712 0)
(54.5685 0.000311317 0)
(54.5682 0.00032355 0)
(54.568 0.000313996 0)
(54.5677 0.000312892 0)
(54.5674 0.000342558 0)
(54.5671 0.000389647 0)
(54.5668 0.0004216 0)
(54.5665 0.000422461 0)
(54.5662 0.000403892 0)
(54.5659 0.000388226 0)
(54.5656 0.000385837 0)
(54.5653 0.000392058 0)
(54.565 0.000399153 0)
(54.5647 0.000400276 0)
(54.5643 0.000390426 0)
(54.564 0.00036902 0)
(54.5637 0.000344253 0)
(54.5635 0.000327268 0)
(54.5632 0.00032432 0)
(54.5629 0.000327987 0)
(54.5626 0.000325951 0)
(54.5623 0.000314831 0)
(54.562 0.000301237 0)
(54.5618 0.000294114 0)
(54.5615 0.000298252 0)
(54.5612 0.00031512 0)
(54.5609 0.000341636 0)
(54.5607 0.000370084 0)
(54.5604 0.000387005 0)
(54.5601 0.000387683 0)
(54.5598 0.000380649 0)
(54.5594 0.000384469 0)
(54.5591 0.000406966 0)
(54.5588 0.000439503 0)
(54.5585 0.000463399 0)
(54.5582 0.000465823 0)
(54.558 0.000451262 0)
(54.5577 0.000432873 0)
(54.5574 0.000422768 0)
(54.5571 0.000424047 0)
(54.5569 0.000431016 0)
(54.5565 0.00043929 0)
(54.5562 0.000451466 0)
(54.5559 0.000473573 0)
(54.5557 0.000502731 0)
(54.5555 0.00052538 0)
(54.5553 0.000529168 0)
(54.5551 0.0005113 0)
(54.5548 0.00048324 0)
(54.5546 0.000461932 0)
(54.5543 0.000453685 0)
(54.5541 0.000450209 0)
(54.5538 0.000436178 0)
(54.5536 0.00040262 0)
(54.5534 0.000349406 0)
(54.5532 0.000277124 0)
(54.5531 0.000182967 0)
(54.5529 6.89584e-05 0)
(54.5526 -4.84962e-05 0)
(54.5525 -0.000145545 0)
(54.5523 -0.000211639 0)
(54.5522 -0.000261075 0)
(54.5521 -0.000319208 0)
(54.5519 -0.000396563 0)
(54.5518 -0.00047863 0)
(54.5518 -0.000542922 0)
(54.5517 -0.000582103 0)
(54.5516 -0.000608119 0)
(54.5515 -0.00063408 0)
(54.5514 -0.000656642 0)
(54.5513 -0.000658663 0)
(54.5511 -0.000628005 0)
(54.551 -0.000571217 0)
(54.5509 -0.000509235 0)
(54.5507 -0.000462323 0)
(54.5506 -0.000437174 0)
(54.5505 -0.000426521 0)
(54.5504 -0.000417122 0)
(54.5503 -0.000397253 0)
(54.5502 -0.000362146 0)
(54.5501 -0.000315582 0)
(54.55 -0.000266652 0)
(54.5499 -0.000221438 0)
(54.5499 -0.000182378 0)
(54.5498 -0.00014921 0)
(54.5497 -0.000122623 0)
(54.5497 -0.000104762 0)
(54.5497 -9.48686e-05 0)
(54.5497 -8.91543e-05 0)
(54.5497 -8.04269e-05 0)
(54.5497 -6.51976e-05 0)
(54.5497 -4.39739e-05 0)
(54.5498 -1.89248e-05 0)
(54.5499 8.08427e-06 0)
(54.55 3.83806e-05 0)
(54.5501 6.92631e-05 0)
(54.5503 9.00658e-05 0)
(54.5504 8.99661e-05 0)
(54.5506 7.03562e-05 0)
(54.5507 4.55403e-05 0)
(54.5508 3.12695e-05 0)
(54.551 3.02479e-05 0)
(54.5511 3.16374e-05 0)
(54.5512 2.55373e-05 0)
(54.5513 1.23184e-05 0)
(54.5513 4.17498e-06 0)
(54.5514 1.11347e-05 0)
(54.5515 3.02222e-05 0)
(54.5516 4.81376e-05 0)
(54.5516 5.41044e-05 0)
(54.5517 4.81591e-05 0)
(54.5518 3.82472e-05 0)
(54.5518 3.06105e-05 0)
(54.5519 2.37372e-05 0)
(54.552 1.25228e-05 0)
(54.552 -2.67838e-06 0)
(54.552 -1.54012e-05 0)
(54.552 -2.26724e-05 0)
(54.552 -3.00641e-05 0)
(54.5521 -4.06765e-05 0)
(54.5521 -4.63101e-05 0)
(54.5521 -3.68912e-05 0)
(54.5522 -1.02402e-05 0)
(54.5523 1.79221e-05 0)
(54.5523 2.77325e-05 0)
(54.5524 1.6011e-05 0)
(54.5525 -1.5603e-06 0)
(54.5526 -5.0636e-06 0)
(54.5527 8.11862e-06 0)
(54.5529 1.96759e-05 0)
(54.5529 1.0387e-05 0)
(54.5529 -1.82552e-05 0)
(54.5529 -4.85517e-05 0)
(54.5529 -6.26611e-05 0)
(54.5529 -5.73767e-05 0)
(54.553 -4.46565e-05 0)
(54.553 -3.69859e-05 0)
(54.5529 -3.562e-05 0)
(54.5529 -3.37923e-05 0)
(54.5528 -2.4159e-05 0)
(54.5528 -1.57681e-05 0)
(54.5527 4.36628e-06 0)
(42.7209 -5.60316e-05 0)
(72.6791 -0.000161066 0)
(62.6332 -0.000174621 0)
(51.8827 -0.000106988 0)
(51.1574 1.79011e-06 0)
(54.0669 6.75022e-05 0)
(55.3642 6.66896e-05 0)
(54.995 8.92869e-05 0)
(54.4727 0.000201826 0)
(54.3828 0.000272846 0)
(54.5027 0.000283105 0)
(54.5751 0.000243893 0)
(54.5675 0.000169131 0)
(54.5432 0.000124709 0)
(54.5362 0.00012946 0)
(54.5408 0.000171751 0)
(54.5449 0.000235991 0)
(54.5449 0.000245869 0)
(54.5439 0.000217155 0)
(54.5438 0.000228538 0)
(54.5443 0.000237937 0)
(54.5445 0.000190638 0)
(54.5448 0.00014505 0)
(54.5449 0.000108914 0)
(54.545 6.95717e-05 0)
(54.5452 7.8468e-05 0)
(54.5454 0.000138379 0)
(54.5456 0.000196477 0)
(54.5458 0.000233832 0)
(54.5457 0.000230054 0)
(54.5455 0.000192272 0)
(54.5453 0.000168149 0)
(54.5451 0.000193902 0)
(54.5451 0.0002699 0)
(54.545 0.000336369 0)
(54.5449 0.000345873 0)
(54.5449 0.000343007 0)
(54.545 0.000364337 0)
(54.545 0.00035743 0)
(54.5449 0.000282395 0)
(54.5448 0.000200928 0)
(54.5448 0.000191463 0)
(54.5448 0.000231885 0)
(54.5447 0.000232268 0)
(54.5446 0.000157464 0)
(54.5446 6.40021e-05 0)
(54.5445 2.65017e-05 0)
(54.5445 6.83099e-05 0)
(54.5445 0.000148005 0)
(54.5445 0.00020023 0)
(54.5444 0.000201961 0)
(54.5444 0.000182065 0)
(54.5443 0.000168922 0)
(54.5443 0.000162895 0)
(54.5442 0.000172258 0)
(54.5443 0.000222221 0)
(54.5445 0.000297133 0)
(54.5446 0.000322926 0)
(54.5446 0.000251555 0)
(54.5445 0.000134 0)
(54.5444 6.54049e-05 0)
(54.5443 7.65835e-05 0)
(54.5443 0.00012197 0)
(54.5443 0.000155572 0)
(54.5444 0.000175237 0)
(54.5445 0.000194158 0)
(54.5447 0.000208444 0)
(54.5447 0.000207145 0)
(54.5448 0.000194581 0)
(54.5448 0.000189186 0)
(54.5449 0.000204658 0)
(54.545 0.000235906 0)
(54.5451 0.000260525 0)
(54.5451 0.000257489 0)
(54.5451 0.000229698 0)
(54.545 0.000204663 0)
(54.545 0.000207384 0)
(54.545 0.000234056 0)
(54.545 0.0002574 0)
(54.545 0.000258357 0)
(54.545 0.000249027 0)
(54.5451 0.000259658 0)
(54.5452 0.000302492 0)
(54.5453 0.000354246 0)
(54.5454 0.000379834 0)
(54.5454 0.00037098 0)
(54.5455 0.00035417 0)
(54.5455 0.000359711 0)
(54.5455 0.000388869 0)
(54.5455 0.000414698 0)
(54.5455 0.000413222 0)
(54.5454 0.000388871 0)
(54.5454 0.00036849 0)
(54.5454 0.00037248 0)
(54.5453 0.000392146 0)
(54.5453 0.000401544 0)
(54.5453 0.000390471 0)
(54.5453 0.000371811 0)
(54.5453 0.000360926 0)
(54.5453 0.000355312 0)
(54.5453 0.000341356 0)
(54.5453 0.000317309 0)
(54.5453 0.0002961 0)
(54.5453 0.000287364 0)
(54.5453 0.00028456 0)
(54.5453 0.000273765 0)
(54.5453 0.000253907 0)
(54.5454 0.000240687 0)
(54.5455 0.0002464 0)
(54.5456 0.000261744 0)
(54.5457 0.00026715 0)
(54.5458 0.000259314 0)
(54.5459 0.000256155 0)
(54.546 0.000272073 0)
(54.5462 0.00029454 0)
(54.5464 0.000295633 0)
(54.5466 0.000266293 0)
(54.5468 0.000228795 0)
(54.5469 0.000215484 0)
(54.5471 0.000238094 0)
(54.5473 0.00027794 0)
(54.5474 0.000305957 0)
(54.5476 0.000305257 0)
(54.5477 0.000280928 0)
(54.5478 0.000253492 0)
(54.5478 0.000244675 0)
(54.5479 0.000258716 0)
(54.5479 0.000280076 0)
(54.5479 0.000287086 0)
(54.548 0.000272119 0)
(54.548 0.000247957 0)
(54.548 0.000232102 0)
(54.5481 0.000229985 0)
(54.5481 0.00023445 0)
(54.5482 0.000238671 0)
(54.5482 0.0002401 0)
(54.5483 0.000237582 0)
(54.5484 0.000224903 0)
(54.5485 0.000199528 0)
(54.5486 0.000168776 0)
(54.5487 0.000149707 0)
(54.5488 0.000151069 0)
(54.549 0.00016203 0)
(54.5491 0.000159783 0)
(54.5493 0.000129104 0)
(54.5494 7.95736e-05 0)
(54.5494 3.62785e-05 0)
(54.5495 1.89007e-05 0)
(54.5496 2.64821e-05 0)
(54.5497 3.83046e-05 0)
(54.5498 3.04359e-05 0)
(54.5499 -7.4781e-06 0)
(54.5499 -6.50969e-05 0)
(54.55 -0.000122329 0)
(54.5501 -0.00016622 0)
(54.5503 -0.000193988 0)
(54.5504 -0.000207791 0)
(54.5505 -0.000206975 0)
(54.5506 -0.000187221 0)
(54.5508 -0.000150304 0)
(54.551 -0.000106144 0)
(54.5511 -6.49461e-05 0)
(54.5513 -2.64973e-05 0)
(54.5515 1.89114e-05 0)
(54.5517 7.71892e-05 0)
(54.5519 0.000141079 0)
(54.5519 0.000198483 0)
(54.552 0.000249199 0)
(54.552 0.000306298 0)
(54.552 0.00037879 0)
(54.552 0.000453088 0)
(54.5519 0.000498561 0)
(54.5518 0.000496273 0)
(54.5517 0.000458235 0)
(54.5515 0.000418509 0)
(54.5513 0.000404522 0)
(54.5512 0.00041653 0)
(54.551 0.000435157 0)
(54.5508 0.000443277 0)
(54.5506 0.000438714 0)
(54.5504 0.0004294 0)
(54.5503 0.000420965 0)
(54.5501 0.000410546 0)
(54.55 0.000390562 0)
(54.5499 0.000356254 0)
(54.5498 0.000311414 0)
(54.5497 0.000269185 0)
(54.5496 0.000243831 0)
(54.5495 0.000240045 0)
(54.5495 0.000248621 0)
(54.5494 0.000252915 0)
(54.5493 0.000239509 0)
(54.5493 0.000206985 0)
(54.5492 0.000163821 0)
(54.5492 0.000118767 0)
(54.5492 7.51398e-05 0)
(54.5491 3.3033e-05 0)
(54.5491 -4.22188e-06 0)
(54.5491 -3.10299e-05 0)
(54.5491 -4.92603e-05 0)
(54.5491 -6.96674e-05 0)
(54.5491 -9.86788e-05 0)
(54.549 -0.000130877 0)
(54.549 -0.000152268 0)
(54.549 -0.000156588 0)
(54.5491 -0.000156453 0)
(54.5491 -0.000171229 0)
(54.5491 -0.000203321 0)
(54.5491 -0.000231602 0)
(54.5491 -0.000229789 0)
(54.5491 -0.000196184 0)
(54.5492 -0.000154651 0)
(54.5492 -0.000129411 0)
(54.5492 -0.000126497 0)
(54.5492 -0.000130663 0)
(54.5493 -0.000124314 0)
(54.5493 -0.000104575 0)
(54.5493 -8.27578e-05 0)
(54.5494 -6.99825e-05 0)
(54.5494 -6.72288e-05 0)
(54.5494 -6.79366e-05 0)
(54.5494 -6.71077e-05 0)
(54.5494 -6.45321e-05 0)
(54.5494 -6.05687e-05 0)
(54.5495 -5.4574e-05 0)
(54.5495 -4.45904e-05 0)
(54.5495 -3.13868e-05 0)
(54.5495 -2.74138e-05 0)
(54.5495 -4.48476e-05 0)
(54.5495 -7.35257e-05 0)
(54.5495 -8.63662e-05 0)
(54.5495 -6.59688e-05 0)
(54.5496 -2.87529e-05 0)
(54.5496 -1.13801e-05 0)
(54.5496 -3.57415e-05 0)
(54.5496 -8.54212e-05 0)
(54.5496 -0.000118876 0)
(54.5496 -0.000108007 0)
(54.5497 -6.55484e-05 0)
(54.5497 -2.94821e-05 0)
(54.5498 -2.07e-05 0)
(54.5498 -3.16777e-05 0)
(54.5497 -4.08461e-05 0)
(54.5497 -3.40175e-05 0)
(54.5497 -1.3306e-05 0)
(54.5497 1.1525e-05 0)
(54.5497 3.34912e-05 0)
(54.5497 5.2737e-05 0)
(54.5497 6.80977e-05 0)
(54.5496 9.31528e-05 0)
(42.7208 3.22517e-05 0)
(72.6793 0.000115465 0)
(62.6327 0.000144838 0)
(51.882 0.000150072 0)
(51.1569 0.000176822 0)
(54.0665 0.00026828 0)
(55.3643 0.00038562 0)
(54.9951 0.000427445 0)
(54.4733 0.000383815 0)
(54.3838 0.000334432 0)
(54.5039 0.000342672 0)
(54.5763 0.000374545 0)
(54.5682 0.000357232 0)
(54.5437 0.000304949 0)
(54.5368 0.000248495 0)
(54.5411 0.000205862 0)
(54.545 0.000243205 0)
(54.5451 0.000284871 0)
(54.5439 0.000253981 0)
(54.5435 0.000227589 0)
(54.5436 0.000257452 0)
(54.5437 0.000269783 0)
(54.5437 0.000248338 0)
(54.5438 0.000248223 0)
(54.5434 0.000214521 0)
(54.5434 0.000167747 0)
(54.5434 0.000170316 0)
(54.5432 0.000221854 0)
(54.5434 0.000321188 0)
(54.5436 0.000437436 0)
(54.5438 0.000527945 0)
(54.5439 0.000560345 0)
(54.544 0.000526994 0)
(54.5441 0.000473001 0)
(54.5442 0.00042122 0)
(54.5443 0.000350469 0)
(54.5443 0.000289669 0)
(54.5445 0.000298562 0)
(54.5448 0.000365302 0)
(54.545 0.000418291 0)
(54.5451 0.000423874 0)
(54.5452 0.000410221 0)
(54.5453 0.000408703 0)
(54.5454 0.000421365 0)
(54.5454 0.000441164 0)
(54.5454 0.00045912 0)
(54.5454 0.000461838 0)
(54.5454 0.000447937 0)
(54.5455 0.000431964 0)
(54.5457 0.000417886 0)
(54.5458 0.000394424 0)
(54.5459 0.00036799 0)
(54.546 0.000356159 0)
(54.5461 0.000346619 0)
(54.546 0.00030828 0)
(54.546 0.00025381 0)
(54.5461 0.000241343 0)
(54.5462 0.000295376 0)
(54.5463 0.000370917 0)
(54.5464 0.000415938 0)
(54.5464 0.000429324 0)
(54.5464 0.000432477 0)
(54.5463 0.000419133 0)
(54.5463 0.000371365 0)
(54.5463 0.000305802 0)
(54.5463 0.000268253 0)
(54.5463 0.000281647 0)
(54.5464 0.000320504 0)
(54.5464 0.000341405 0)
(54.5464 0.000327667 0)
(54.5465 0.000300413 0)
(54.5465 0.000291206 0)
(54.5466 0.000308352 0)
(54.5466 0.000331052 0)
(54.5467 0.000335664 0)
(54.5467 0.000322548 0)
(54.5468 0.000311732 0)
(54.5468 0.00031497 0)
(54.5468 0.000319517 0)
(54.5469 0.000303073 0)
(54.5469 0.000261909 0)
(54.5469 0.000218974 0)
(54.5469 0.000200741 0)
(54.5469 0.000208315 0)
(54.547 0.000217696 0)
(54.5471 0.000210225 0)
(54.5471 0.000196045 0)
(54.5472 0.000200772 0)
(54.5472 0.000232066 0)
(54.5473 0.00026733 0)
(54.5474 0.000276179 0)
(54.5475 0.000251515 0)
(54.5476 0.000216523 0)
(54.5477 0.000201084 0)
(54.5477 0.000211786 0)
(54.5478 0.00022759 0)
(54.5478 0.000226221 0)
(54.5479 0.000209153 0)
(54.5479 0.000196584 0)
(54.5479 0.000201149 0)
(54.548 0.000214618 0)
(54.548 0.00022196 0)
(54.548 0.000220608 0)
(54.548 0.000220974 0)
(54.548 0.000229472 0)
(54.548 0.00023574 0)
(54.548 0.000221978 0)
(54.548 0.000185952 0)
(54.5479 0.000149076 0)
(54.5479 0.000135382 0)
(54.5479 0.00014497 0)
(54.5478 0.000154414 0)
(54.5477 0.00014275 0)
(54.5476 0.000110929 0)
(54.5476 7.52052e-05 0)
(54.5475 5.00819e-05 0)
(54.5474 4.1476e-05 0)
(54.5473 4.96375e-05 0)
(54.5472 7.13736e-05 0)
(54.5471 9.92156e-05 0)
(54.547 0.000124263 0)
(54.5469 0.000143355 0)
(54.5469 0.000161395 0)
(54.5468 0.000184404 0)
(54.5468 0.000211817 0)
(54.5468 0.000238108 0)
(54.5468 0.000258986 0)
(54.5468 0.000272902 0)
(54.5468 0.000276976 0)
(54.5469 0.000267968 0)
(54.5469 0.000249547 0)
(54.5469 0.000233203 0)
(54.5469 0.00022796 0)
(54.5469 0.000230831 0)
(54.5468 0.000231199 0)
(54.5468 0.000223159 0)
(54.5468 0.00021146 0)
(54.5467 0.00020391 0)
(54.5466 0.00020231 0)
(54.5465 0.000201757 0)
(54.5464 0.000198915 0)
(54.5463 0.000196457 0)
(54.5462 0.000199769 0)
(54.5462 0.000209845 0)
(54.5461 0.000221047 0)
(54.5461 0.000227524 0)
(54.546 0.000230572 0)
(54.5459 0.000239221 0)
(54.5458 0.000262766 0)
(54.5457 0.000300189 0)
(54.5456 0.00033723 0)
(54.5455 0.00035511 0)
(54.5454 0.000344627 0)
(54.5453 0.000312807 0)
(54.5451 0.000276064 0)
(54.5449 0.000247128 0)
(54.5447 0.000226389 0)
(54.5444 0.000205916 0)
(54.5441 0.000180178 0)
(54.5439 0.0001475 0)
(54.5436 0.000106141 0)
(54.5433 5.11757e-05 0)
(54.5431 -1.93234e-05 0)
(54.5429 -9.50279e-05 0)
(54.5427 -0.000155672 0)
(54.5426 -0.00018698 0)
(54.5425 -0.000194097 0)
(54.5424 -0.000195801 0)
(54.5424 -0.000205029 0)
(54.5424 -0.000217775 0)
(54.5425 -0.00022259 0)
(54.5427 -0.000218474 0)
(54.5428 -0.000218848 0)
(54.543 -0.000236285 0)
(54.5432 -0.000267153 0)
(54.5434 -0.000293165 0)
(54.5437 -0.000296985 0)
(54.5439 -0.000276113 0)
(54.5441 -0.000242817 0)
(54.5444 -0.00021387 0)
(54.5446 -0.000199942 0)
(54.5449 -0.000202542 0)
(54.5452 -0.000215132 0)
(54.5455 -0.000228348 0)
(54.5458 -0.000234857 0)
(54.5461 -0.000231971 0)
(54.5464 -0.000220996 0)
(54.5467 -0.00020344 0)
(54.5469 -0.000178454 0)
(54.5472 -0.000145307 0)
(54.5474 -0.00010908 0)
(54.5477 -7.79402e-05 0)
(54.5479 -5.94562e-05 0)
(54.548 -5.46077e-05 0)
(54.5482 -5.74734e-05 0)
(54.5483 -6.15919e-05 0)
(54.5484 -6.32775e-05 0)
(54.5485 -6.1527e-05 0)
(54.5486 -5.30547e-05 0)
(54.5487 -3.36836e-05 0)
(54.5488 -4.80237e-06 0)
(54.5488 2.27852e-05 0)
(54.5489 3.50348e-05 0)
(54.5489 2.90181e-05 0)
(54.549 1.76424e-05 0)
(54.549 1.64812e-05 0)
(54.549 2.68031e-05 0)
(54.5491 3.43486e-05 0)
(54.5491 2.44302e-05 0)
(54.5491 -1.53907e-06 0)
(54.5491 -2.55507e-05 0)
(54.5491 -3.18666e-05 0)
(54.5492 -2.14856e-05 0)
(54.5492 -8.53876e-06 0)
(54.5492 -5.34112e-06 0)
(54.5493 -1.17725e-05 0)
(54.5493 -1.88365e-05 0)
(54.5493 -1.97606e-05 0)
(54.5493 -1.58823e-05 0)
(54.5493 -1.26158e-05 0)
(54.5494 -1.2123e-05 0)
(54.5494 -1.17518e-05 0)
(54.5494 -1.04822e-05 0)
(54.5494 -1.34683e-05 0)
(54.5494 -2.48023e-05 0)
(54.5494 -3.88562e-05 0)
(54.5494 -4.35692e-05 0)
(54.5495 -3.34908e-05 0)
(54.5495 -1.96954e-05 0)
(54.5495 -2.13542e-05 0)
(54.5495 -4.60016e-05 0)
(54.5495 -7.7218e-05 0)
(54.5495 -8.81921e-05 0)
(54.5495 -6.96549e-05 0)
(54.5496 -3.91528e-05 0)
(54.5496 -2.30754e-05 0)
(54.5496 -3.19676e-05 0)
(54.5496 -5.38307e-05 0)
(54.5496 -6.78573e-05 0)
(54.5496 -6.45377e-05 0)
(54.5496 -5.09206e-05 0)
(54.5496 -3.80478e-05 0)
(54.5496 -2.91827e-05 0)
(54.5496 -1.96753e-05 0)
(54.5496 -5.27158e-06 0)
(54.5496 1.36706e-05 0)
(54.5496 3.37311e-05 0)
(54.5496 5.47015e-05 0)
(54.5495 7.26737e-05 0)
(54.5495 0.000102866 0)
(42.7208 1.71112e-05 0)
(72.68 0.000160307 0)
(62.6339 0.000276461 0)
(51.8829 0.00022898 0)
(51.1572 0.000117472 0)
(54.0668 3.05447e-05 0)
(55.3644 5.70853e-05 0)
(54.9951 6.99796e-05 0)
(54.4727 2.45336e-05 0)
(54.3827 6.02435e-06 0)
(54.5025 1.64861e-05 0)
(54.5749 7.91717e-05 0)
(54.5673 0.000177969 0)
(54.5429 0.000240197 0)
(54.5359 0.000254486 0)
(54.5403 0.000203707 0)
(54.5442 0.000157278 0)
(54.5445 0.000164017 0)
(54.5432 0.000163265 0)
(54.5429 0.000162825 0)
(54.5432 0.000200919 0)
(54.5435 0.000248748 0)
(54.5434 0.00027255 0)
(54.5436 0.000320262 0)
(54.5437 0.000359417 0)
(54.5436 0.000337381 0)
(54.5438 0.000286719 0)
(54.5438 0.000217148 0)
(54.5438 0.000123765 0)
(54.5439 3.74197e-05 0)
(54.544 -6.52902e-06 0)
(54.5442 -1.49756e-05 0)
(54.5442 -2.03281e-05 0)
(54.5444 -1.54919e-05 0)
(54.5446 2.82929e-05 0)
(54.5447 8.19984e-05 0)
(54.5446 8.22847e-05 0)
(54.5446 3.33448e-05 0)
(54.5446 6.608e-06 0)
(54.5447 3.52964e-05 0)
(54.5447 7.49287e-05 0)
(54.5448 8.29654e-05 0)
(54.5449 7.41821e-05 0)
(54.545 7.82843e-05 0)
(54.5451 9.63856e-05 0)
(54.5452 0.000111253 0)
(54.5453 0.000107668 0)
(54.5453 8.55582e-05 0)
(54.5453 6.43084e-05 0)
(54.5453 6.06716e-05 0)
(54.5452 6.77045e-05 0)
(54.5451 7.57333e-05 0)
(54.5451 9.78867e-05 0)
(54.5451 0.00014322 0)
(54.5452 0.00017961 0)
(54.5451 0.000167028 0)
(54.545 0.00011784 0)
(54.545 8.54204e-05 0)
(54.545 9.53765e-05 0)
(54.5451 0.000125076 0)
(54.5451 0.000148396 0)
(54.5452 0.000164842 0)
(54.5453 0.000179272 0)
(54.5455 0.000184431 0)
(54.5455 0.000176159 0)
(54.5455 0.000165681 0)
(54.5455 0.000163864 0)
(54.5455 0.000165517 0)
(54.5456 0.000158704 0)
(54.5456 0.000141933 0)
(54.5456 0.000125109 0)
(54.5456 0.000117711 0)
(54.5456 0.000120827 0)
(54.5456 0.000128256 0)
(54.5456 0.000132797 0)
(54.5456 0.0001322 0)
(54.5455 0.000130396 0)
(54.5455 0.000134203 0)
(54.5456 0.000148324 0)
(54.5456 0.000170953 0)
(54.5457 0.000192786 0)
(54.5456 0.000203364 0)
(54.5456 0.000200414 0)
(54.5456 0.000190836 0)
(54.5456 0.00018148 0)
(54.5457 0.000172321 0)
(54.5457 0.000160653 0)
(54.5457 0.000148198 0)
(54.5457 0.000140272 0)
(54.5458 0.000139727 0)
(54.5459 0.000144248 0)
(54.546 0.000149478 0)
(54.546 0.000154863 0)
(54.5461 0.000166104 0)
(54.5462 0.000188726 0)
(54.5462 0.000217639 0)
(54.5463 0.000237776 0)
(54.5464 0.000239262 0)
(54.5465 0.00022916 0)
(54.5465 0.000223358 0)
(54.5466 0.000228137 0)
(54.5467 0.000234843 0)
(54.5468 0.000232894 0)
(54.5469 0.000224164 0)
(54.5469 0.000221604 0)
(54.547 0.000233324 0)
(54.5471 0.000251278 0)
(54.5471 0.000260942 0)
(54.5472 0.000262462 0)
(54.5472 0.000274831 0)
(54.5472 0.000313686 0)
(54.5472 0.000369239 0)
(54.5472 0.000412975 0)
(54.5472 0.000425517 0)
(54.5472 0.000413405 0)
(54.5472 0.000399387 0)
(54.5472 0.000401015 0)
(54.5472 0.000418981 0)
(54.5473 0.000440392 0)
(54.5473 0.000448297 0)
(54.5473 0.000430721 0)
(54.5474 0.000387841 0)
(54.5475 0.000333742 0)
(54.5476 0.000288022 0)
(54.5477 0.000261501 0)
(54.5478 0.000249789 0)
(54.5479 0.000241164 0)
(54.548 0.000228792 0)
(54.5481 0.000214057 0)
(54.5482 0.000201668 0)
(54.5483 0.000196772 0)
(54.5484 0.00020585 0)
(54.5484 0.00023356 0)
(54.5485 0.00027514 0)
(54.5486 0.000315113 0)
(54.5487 0.000337803 0)
(54.5487 0.000340429 0)
(54.5488 0.000334465 0)
(54.5489 0.000333588 0)
(54.549 0.000340424 0)
(54.5491 0.000345061 0)
(54.5492 0.000335413 0)
(54.5494 0.00030879 0)
(54.5495 0.000273565 0)
(54.5497 0.000241421 0)
(54.5499 0.000218934 0)
(54.5501 0.000205554 0)
(54.5503 0.000197596 0)
(54.5504 0.000192918 0)
(54.5506 0.000192075 0)
(54.5509 0.000195395 0)
(54.5511 0.00019974 0)
(54.5514 0.000200398 0)
(54.5516 0.000197183 0)
(54.5519 0.000197774 0)
(54.5521 0.000213324 0)
(54.5523 0.000249323 0)
(54.5525 0.000300014 0)
(54.5527 0.000351891 0)
(54.5528 0.000394584 0)
(54.5529 0.000424171 0)
(54.553 0.000438702 0)
(54.5531 0.00043415 0)
(54.5531 0.000408935 0)
(54.553 0.000371072 0)
(54.553 0.000337361 0)
(54.5529 0.000320134 0)
(54.5528 0.000314609 0)
(54.5527 0.000302849 0)
(54.5526 0.000270214 0)
(54.5524 0.000218358 0)
(54.5523 0.000160452 0)
(54.5522 0.00010715 0)
(54.5521 5.87963e-05 0)
(54.552 1.17265e-05 0)
(54.5518 -3.18598e-05 0)
(54.5517 -6.33272e-05 0)
(54.5516 -7.64772e-05 0)
(54.5514 -7.54315e-05 0)
(54.5513 -7.33135e-05 0)
(54.5511 -8.42004e-05 0)
(54.5509 -0.000114362 0)
(54.5508 -0.000160249 0)
(54.5506 -0.000210408 0)
(54.5504 -0.000251136 0)
(54.5503 -0.000272882 0)
(54.5501 -0.00027414 0)
(54.55 -0.000259804 0)
(54.5498 -0.000236631 0)
(54.5497 -0.000209637 0)
(54.5495 -0.000181955 0)
(54.5494 -0.000157667 0)
(54.5493 -0.000141645 0)
(54.5492 -0.00013786 0)
(54.5491 -0.000145535 0)
(54.549 -0.000158837 0)
(54.5489 -0.000172008 0)
(54.5489 -0.000184124 0)
(54.5488 -0.000196834 0)
(54.5487 -0.000207969 0)
(54.5487 -0.000211023 0)
(54.5487 -0.000203568 0)
(54.5486 -0.000193485 0)
(54.5486 -0.000194247 0)
(54.5486 -0.000211553 0)
(54.5486 -0.000235575 0)
(54.5486 -0.000249735 0)
(54.5486 -0.00024712 0)
(54.5487 -0.000235705 0)
(54.5487 -0.000228251 0)
(54.5487 -0.000228297 0)