/*--------------------------------*- C++ -*----------------------------------*\
| =========                 |                                                 |
| \\      /  F ield         | OpenFOAM: The Open Source CFD Toolbox           |
|  \\    /   O peration     | Version:  2406                                  |
|   \\  /    A nd           | Website:  www.openfoam.com                      |
|    \\/     M anipulation  |                                                 |
\*---------------------------------------------------------------------------*/
FoamFile
{
    version     2.0;
    format      ascii;
    arch        "LSB;label=32;scalar=64";
    class       surfaceScalarField;
    location    "0.95";
    object      alphaPhi0.air;
}
// * * * * * * * * * * * * * * * * * * * * * * * * * * * * * * * * * * * * * //

dimensions      [0 3 -1 0 0 0 0];

oriented        oriented;

internalField   nonuniform List<scalar> 
12225
(
0.506191
1.95194e-06
0.506185
5.82577e-06
0.506178
7.36238e-06
0.506172
5.67426e-06
0.506167
5.35012e-06
0.506161
5.62048e-06
0.506156
5.42479e-06
0.50615
5.93761e-06
0.506144
5.86585e-06
0.506138
5.74213e-06
0.506132
5.67509e-06
0.506127
5.60445e-06
0.506122
5.25542e-06
0.506117
4.68421e-06
0.506113
4.22686e-06
0.506109
4.01534e-06
0.506105
4.14302e-06
0.5061
4.49192e-06
0.506095
5.18553e-06
0.506089
5.83079e-06
0.506083
5.9886e-06
0.506077
5.96999e-06
0.506071
5.63648e-06
0.506066
5.1603e-06
0.506061
5.07455e-06
0.506056
5.16414e-06
0.506051
4.8833e-06
0.506047
4.59241e-06
0.506042
4.9053e-06
0.506036
5.4248e-06
0.506031
5.49385e-06
0.506026
5.14204e-06
0.506021
5.01406e-06
0.506015
5.54979e-06
0.506009
6.28491e-06
0.506002
6.29917e-06
0.505997
5.69346e-06
0.505991
5.28572e-06
0.505986
5.24773e-06
0.505981
5.27695e-06
0.505976
5.28432e-06
0.50597
5.38299e-06
0.505965
5.5886e-06
0.505959
5.74317e-06
0.505953
5.81647e-06
0.505947
5.8696e-06
0.505941
5.87676e-06
0.505936
5.86683e-06
0.50593
5.84703e-06
0.505924
5.70655e-06
0.505919
5.42878e-06
0.505913
5.19165e-06
0.505908
5.22019e-06
0.505903
5.49478e-06
0.505897
5.80504e-06
0.505891
6.00412e-06
0.505885
6.07793e-06
0.505879
6.04867e-06
0.505873
5.84032e-06
0.505868
5.38047e-06
0.505863
4.93565e-06
0.505858
4.9549e-06
0.505852
5.48018e-06
0.505846
6.06695e-06
0.50584
6.29989e-06
0.505834
6.12488e-06
0.505828
5.69952e-06
0.505823
5.20661e-06
0.505818
4.88862e-06
0.505813
4.97898e-06
0.505807
5.44691e-06
0.505801
5.95549e-06
0.505795
6.15598e-06
0.505789
5.94892e-06
0.505784
5.53063e-06
0.505779
5.25194e-06
0.505773
5.32212e-06
0.505768
5.61461e-06
0.505762
5.78971e-06
0.505756
5.58972e-06
0.505751
5.14101e-06
0.505746
4.89317e-06
0.505741
5.09569e-06
0.505736
5.45272e-06
0.50573
5.553e-06
0.505725
5.37742e-06
0.50572
5.16095e-06
0.505715
5.07394e-06
0.505709
5.14801e-06
0.505704
5.24527e-06
0.505699
5.16027e-06
0.505694
4.91104e-06
0.505689
4.79781e-06
0.505684
5.04751e-06
0.505679
5.50432e-06
0.505673
5.83778e-06
0.505667
5.94023e-06
0.505661
5.89742e-06
0.505655
5.72827e-06
0.50565
5.37549e-06
0.505645
4.90089e-06
0.50564
4.54044e-06
0.505636
4.50546e-06
0.505631
4.77877e-06
0.505626
5.12476e-06
0.505621
5.30819e-06
0.505615
5.3197e-06
0.50561
5.31163e-06
0.505605
5.35791e-06
0.505599
5.37747e-06
0.505594
5.23512e-06
0.505589
4.87899e-06
0.505585
4.49655e-06
0.50558
4.43292e-06
0.505576
4.7429e-06
0.505571
5.05462e-06
0.505566
5.04178e-06
0.505561
4.84134e-06
0.505556
4.76501e-06
0.505551
4.86808e-06
0.505546
5.01815e-06
0.505541
5.186e-06
0.505535
5.41934e-06
0.50553
5.6502e-06
0.505524
5.75604e-06
0.505518
5.74111e-06
0.505513
5.65286e-06
0.505507
5.48073e-06
0.505502
5.27009e-06
0.505497
5.20064e-06
0.505491
5.38048e-06
0.505486
5.7411e-06
0.505479
6.16629e-06
0.505473
6.50286e-06
0.505466
6.5183e-06
0.50546
6.14567e-06
0.505454
5.72012e-06
0.505449
5.65944e-06
0.505443
6.00126e-06
0.505436
6.4416e-06
0.50543
6.69672e-06
0.505423
6.6306e-06
0.505417
6.31065e-06
0.505411
6.01232e-06
0.505405
5.9791e-06
0.505399
6.08047e-06
0.505393
6.0134e-06
0.505387
5.79185e-06
0.505381
5.69218e-06
0.505375
5.80124e-06
0.505369
5.92186e-06
0.505364
5.87835e-06
0.505358
5.67908e-06
0.505352
5.46432e-06
0.505347
5.36141e-06
0.505342
5.34081e-06
0.505336
5.28572e-06
0.505331
5.23509e-06
0.505326
5.33382e-06
0.50532
5.505e-06
0.505315
5.50313e-06
0.50531
5.32616e-06
0.505304
5.21961e-06
0.505299
5.26633e-06
0.505294
5.31498e-06
0.505288
5.2715e-06
0.505283
5.15751e-06
0.505278
4.98191e-06
0.505273
4.82707e-06
0.505269
4.88726e-06
0.505263
5.13617e-06
0.505258
5.24471e-06
0.505253
5.00833e-06
0.505249
4.6551e-06
0.505244
4.51239e-06
0.505239
4.61469e-06
0.505235
4.75411e-06
0.50523
4.75677e-06
0.505225
4.62034e-06
0.505221
4.50203e-06
0.505216
4.58117e-06
0.505211
4.8276e-06
0.505206
5.00173e-06
0.505201
4.94644e-06
0.505197
4.73628e-06
0.505192
4.50506e-06
0.505188
4.3263e-06
0.505184
4.28005e-06
0.505179
4.40586e-06
0.505175
4.55986e-06
0.50517
4.56171e-06
0.505166
4.45408e-06
0.505161
4.44942e-06
0.505157
4.62509e-06
0.505152
4.84245e-06
0.505147
4.91986e-06
0.505142
4.78513e-06
0.505137
4.50995e-06
0.505133
4.25971e-06
0.505129
4.18157e-06
0.505125
4.31031e-06
0.50512
4.56477e-06
0.505115
4.8195e-06
0.50511
4.94564e-06
0.505105
4.92249e-06
0.505101
4.8837e-06
0.505096
4.95508e-06
0.505091
5.07655e-06
0.505085
5.11594e-06
0.50508
5.08561e-06
0.505075
5.10085e-06
0.50507
5.17819e-06
0.505065
5.23819e-06
0.50506
5.25574e-06
0.505054
5.25084e-06
0.505049
5.19485e-06
0.505044
5.05943e-06
0.505039
4.92519e-06
0.505034
4.91542e-06
0.505029
5.03345e-06
0.505024
5.1686e-06
0.505019
5.23222e-06
0.505014
5.20879e-06
0.505008
5.12773e-06
0.505003
5.05309e-06
0.504998
5.04893e-06
0.504993
5.08336e-06
0.504988
5.04229e-06
0.504983
4.90239e-06
0.504979
4.79517e-06
0.504974
4.82685e-06
0.504969
4.92008e-06
0.504964
4.91645e-06
0.504959
4.75564e-06
0.504955
4.49454e-06
0.50495
4.24863e-06
0.504946
4.12686e-06
0.504942
4.12331e-06
0.504938
4.1226e-06
0.504934
4.07737e-06
0.50493
4.04557e-06
0.504926
4.02185e-06
0.504922
3.93069e-06
0.504918
3.7893e-06
0.504914
3.68369e-06
0.504911
3.60238e-06
0.504907
3.51094e-06
0.504904
3.40669e-06
0.5049
3.5208e-06
3.14275e-06
0.506195
-8.73115e-07
0.506202
-7.64293e-07
0.506208
9.25541e-07
0.506211
2.60507e-06
0.506213
3.20295e-06
0.506216
3.03805e-06
0.506219
2.62586e-06
0.506223
2.01284e-06
0.506227
1.59137e-06
0.506231
1.64455e-06
0.506235
1.80736e-06
0.506239
1.91192e-06
0.506241
2.50835e-06
0.506243
3.62606e-06
0.506242
4.35155e-06
0.506243
3.81036e-06
0.506244
2.70776e-06
0.506247
2.01849e-06
0.50625
1.51925e-06
0.506254
1.55501e-06
0.506259
1.66966e-06
0.506263
1.60336e-06
0.506267
2.13503e-06
0.506269
2.86461e-06
0.506271
3.30578e-06
0.506273
3.11704e-06
0.506275
2.76376e-06
0.506277
2.67607e-06
0.506279
2.78733e-06
0.506282
2.65526e-06
0.506285
2.15043e-06
0.506288
1.73492e-06
0.506292
1.74495e-06
0.506295
2.01443e-06
0.506299
2.42697e-06
0.506302
2.90804e-06
0.506305
3.08613e-06
0.506307
2.95017e-06
0.50631
2.83779e-06
0.506312
2.79858e-06
0.506315
2.672e-06
0.506318
2.40726e-06
0.506321
2.20988e-06
0.506325
2.24663e-06
0.506328
2.4033e-06
0.506332
2.41511e-06
0.506335
2.16886e-06
0.506339
2.01084e-06
0.506343
2.38784e-06
0.506345
3.04334e-06
0.506348
3.24595e-06
0.50635
2.75704e-06
0.506353
2.19939e-06
0.506356
2.22943e-06
0.506359
2.75537e-06
0.506362
3.13818e-06
0.506365
3.0101e-06
0.506369
2.62244e-06
0.506372
2.43057e-06
0.506375
2.42951e-06
0.506378
2.29841e-06
0.506381
2.08485e-06
0.506384
2.17775e-06
0.506387
2.64421e-06
0.50639
3.07453e-06
0.506394
3.0768e-06
0.506397
2.65936e-06
0.5064
2.12391e-06
0.506403
1.78843e-06
0.506406
1.80544e-06
0.506409
2.09989e-06
0.506413
2.44574e-06
0.506416
2.68491e-06
0.506419
2.81237e-06
0.506422
2.85113e-06
0.506425
2.79726e-06
0.506427
2.66491e-06
0.50643
2.51674e-06
0.506434
2.47302e-06
0.506437
2.57577e-06
0.506439
2.64038e-06
0.506441
2.52976e-06
0.506444
2.43075e-06
0.506447
2.54943e-06
0.50645
2.71408e-06
0.506453
2.65486e-06
0.506455
2.3759e-06
0.506458
2.07146e-06
0.506462
1.94648e-06
0.506465
2.11927e-06
0.506467
2.45427e-06
0.50647
2.63182e-06
0.506472
2.55406e-06
0.506474
2.50198e-06
0.506477
2.72922e-06
0.50648
3.07836e-06
0.506483
3.21114e-06
0.506486
3.06422e-06
0.506488
2.85793e-06
0.506491
2.75092e-06
0.506493
2.66992e-06
0.506495
2.48336e-06
0.506498
2.2234e-06
0.5065
2.1029e-06
0.506503
2.27594e-06
0.506506
2.59154e-06
0.506508
2.71669e-06
0.506511
2.52882e-06
0.506514
2.22523e-06
0.506518
2.11808e-06
0.506521
2.33017e-06
0.506523
2.63596e-06
0.506525
2.62662e-06
0.506527
2.26708e-06
0.50653
2.01251e-06
0.506532
2.17211e-06
0.506535
2.45872e-06
0.506537
2.48489e-06
0.50654
2.31924e-06
0.506542
2.27589e-06
0.506545
2.42256e-06
0.506548
2.58575e-06
0.50655
2.6698e-06
0.506553
2.71559e-06
0.506556
2.728e-06
0.506559
2.67859e-06
0.506562
2.5981e-06
0.506565
2.49765e-06
0.506568
2.32625e-06
0.506571
2.12283e-06
0.506575
2.0255e-06
0.506579
2.06091e-06
0.506582
2.17234e-06
0.506587
2.40734e-06
0.50659
2.79094e-06
0.506593
3.06273e-06
0.506596
2.93145e-06
0.506599
2.44673e-06
0.506603
1.95371e-06
0.506608
1.69694e-06
0.506613
1.77569e-06
0.506618
2.11879e-06
0.506622
2.38017e-06
0.506625
2.32764e-06
0.506629
2.18561e-06
0.506633
2.32619e-06
0.506636
2.67582e-06
0.506639
2.84005e-06
0.506642
2.69605e-06
0.506645
2.48759e-06
0.506649
2.42148e-06
0.506652
2.48484e-06
0.506655
2.55049e-06
0.506658
2.5458e-06
0.506661
2.55339e-06
0.506664
2.68794e-06
0.506666
2.8445e-06
0.506669
2.81306e-06
0.506671
2.66425e-06
0.506674
2.66309e-06
0.506677
2.79738e-06
0.506679
2.79865e-06
0.506682
2.59425e-06
0.506685
2.36898e-06
0.506688
2.26718e-06
0.506691
2.33831e-06
0.506693
2.60468e-06
0.506696
2.90708e-06
0.506697
2.92815e-06
0.5067
2.65798e-06
0.506702
2.47826e-06
0.506705
2.61164e-06
0.506707
2.79041e-06
0.506709
2.68746e-06
0.506711
2.35939e-06
0.506714
2.12076e-06
0.506716
2.15945e-06
0.506719
2.38721e-06
0.506721
2.56168e-06
0.506723
2.5232e-06
0.506725
2.37832e-06
0.506727
2.36165e-06
0.50673
2.51399e-06
0.506732
2.66649e-06
0.506734
2.71684e-06
0.506736
2.69502e-06
0.506738
2.59617e-06
0.50674
2.39732e-06
0.506742
2.21869e-06
0.506744
2.20299e-06
0.506746
2.28643e-06
0.506749
2.2965e-06
0.506751
2.20258e-06
0.506753
2.11947e-06
0.506756
2.14495e-06
0.506759
2.30842e-06
0.506761
2.58129e-06
0.506763
2.84725e-06
0.506764
2.95463e-06
0.506765
2.83018e-06
0.506767
2.55999e-06
0.506769
2.3165e-06
0.506772
2.25213e-06
0.506774
2.34385e-06
0.506777
2.4021e-06
0.506779
2.33261e-06
0.506782
2.28511e-06
0.506785
2.41933e-06
0.506787
2.6418e-06
0.50679
2.75598e-06
0.506792
2.73302e-06
0.506794
2.6711e-06
0.506797
2.59706e-06
0.5068
2.49586e-06
0.506803
2.44019e-06
0.506805
2.50742e-06
0.506808
2.62615e-06
0.50681
2.64561e-06
0.506812
2.52823e-06
0.506815
2.36387e-06
0.506818
2.24383e-06
0.506821
2.21918e-06
0.506824
2.29825e-06
0.506827
2.41223e-06
0.506829
2.46163e-06
0.506832
2.45502e-06
0.506834
2.50928e-06
0.506837
2.64257e-06
0.506839
2.70162e-06
0.506841
2.5738e-06
0.506844
2.36251e-06
0.506846
2.25998e-06
0.506849
2.33611e-06
0.506851
2.51291e-06
0.506853
2.65909e-06
0.506855
2.68601e-06
0.506856
2.63347e-06
0.506858
2.60565e-06
0.506859
2.5954e-06
0.506861
2.52477e-06
0.506862
2.44413e-06
0.506864
2.47036e-06
0.506865
2.57624e-06
0.506866
2.6565e-06
0.506867
2.69927e-06
0.506868
2.71188e-06
0.506869
2.64922e-06
0.50687
2.50946e-06
0.506871
2.46943e-06
2.46828e-06
0.506194
6.94421e-07
0.506191
1.88644e-06
0.50619
2.12156e-06
0.506191
2.20859e-06
0.506192
2.00795e-06
0.506193
1.44214e-06
0.506195
1.44507e-06
0.506195
1.7048e-06
0.506194
2.30906e-06
0.506193
2.67488e-06
0.506193
2.48147e-06
0.506192
2.30358e-06
0.506193
1.61304e-06
0.506196
4.07533e-07
0.5062
7.32205e-07
0.506201
2.25961e-06
0.506201
2.8722e-06
0.5062
3.16336e-06
0.506198
3.4207e-06
0.506196
3.32742e-06
0.506195
2.80994e-06
0.506195
2.25961e-06
0.506195
2.1729e-06
0.506195
2.07477e-06
0.506197
1.83364e-06
0.506198
1.62323e-06
0.506199
1.73836e-06
0.5062
2.14985e-06
0.5062
2.59291e-06
0.5062
2.65901e-06
0.5062
2.52712e-06
0.506199
2.50811e-06
0.506198
2.47623e-06
0.506198
2.20938e-06
0.506199
1.8515e-06
0.5062
1.71559e-06
0.506201
1.72413e-06
0.506202
1.70252e-06
0.506203
1.74589e-06
0.506204
1.85819e-06
0.506205
1.93939e-06
0.506206
1.95624e-06
0.506206
2.05674e-06
0.506206
2.28295e-06
0.506206
2.50652e-06
0.506205
2.71824e-06
0.506205
2.89329e-06
0.506204
2.86937e-06
0.506203
2.67556e-06
0.506204
2.49163e-06
0.506205
2.35082e-06
0.506205
2.16262e-06
0.506206
2.0015e-06
0.506206
2.11767e-06
0.506206
2.55221e-06
0.506206
2.96897e-06
0.506206
2.94463e-06
0.506206
2.4118e-06
0.506207
1.83388e-06
0.506208
1.70721e-06
0.506208
1.99823e-06
0.506208
2.35524e-06
0.506207
2.60145e-06
0.506207
2.72298e-06
0.506208
2.65266e-06
0.506208
2.35619e-06
0.506209
2.00401e-06
0.506209
1.84101e-06
0.506209
1.93393e-06
0.506209
2.14755e-06
0.506209
2.30502e-06
0.506209
2.29566e-06
0.506209
2.15774e-06
0.50621
2.0786e-06
0.506211
2.17892e-06
0.506211
2.36214e-06
0.506211
2.42053e-06
0.506212
2.21667e-06
0.506212
1.87381e-06
0.506213
1.72052e-06
0.506214
1.87198e-06
0.506214
2.05409e-06
0.506215
2.04584e-06
0.506215
1.98066e-06
0.506216
2.02573e-06
0.506217
2.14988e-06
0.506217
2.25619e-06
0.506217
2.24024e-06
0.506216
2.02965e-06
0.506217
1.76164e-06
0.506218
1.69525e-06
0.506218
1.88646e-06
0.506219
2.12804e-06
0.506219
2.27133e-06
0.506219
2.38681e-06
0.50622
2.51411e-06
0.506221
2.49631e-06
0.506221
2.21152e-06
0.506223
1.80621e-06
0.506224
1.57509e-06
0.506225
1.66235e-06
0.506225
1.94081e-06
0.506225
2.1493e-06
0.506225
2.16023e-06
0.506225
2.12305e-06
0.506226
2.26152e-06
0.506226
2.56768e-06
0.506226
2.81895e-06
0.506225
2.80463e-06
0.506225
2.52296e-06
0.506225
2.23921e-06
0.506225
2.24734e-06
0.506225
2.46504e-06
0.506225
2.52658e-06
0.506225
2.35433e-06
0.506225
2.25707e-06
0.506225
2.37168e-06
0.506225
2.44744e-06
0.506225
2.28666e-06
0.506225
2.0515e-06
0.506225
1.99978e-06
0.506226
2.16226e-06
0.506226
2.40398e-06
0.506226
2.60559e-06
0.506226
2.6505e-06
0.506226
2.44196e-06
0.506227
2.05449e-06
0.506228
1.69869e-06
0.506229
1.4961e-06
0.506229
1.46019e-06
0.50623
1.63201e-06
0.50623
1.98689e-06
0.50623
2.32287e-06
0.50623
2.5023e-06
0.50623
2.63387e-06
0.50623
2.80526e-06
0.50623
2.89411e-06
0.50623
2.78764e-06
0.506229
2.55895e-06
0.506228
2.32883e-06
0.506228
2.22665e-06
0.506228
2.40724e-06
0.506227
2.81591e-06
0.506226
3.08842e-06
0.506226
2.97488e-06
0.506225
2.69787e-06
0.506225
2.58672e-06
0.506226
2.61777e-06
0.506226
2.57244e-06
0.506226
2.40291e-06
0.506226
2.22158e-06
0.506226
2.12527e-06
0.506227
2.11006e-06
0.506227
2.0635e-06
0.506228
1.91224e-06
0.506229
1.77946e-06
0.50623
1.7921e-06
0.506231
1.81838e-06
0.506232
1.6993e-06
0.506233
1.57693e-06
0.506234
1.6579e-06
0.506235
1.85599e-06
0.506236
1.96377e-06
0.506236
1.9492e-06
0.506236
1.86323e-06
0.506237
1.73534e-06
0.506238
1.71413e-06
0.506239
1.97487e-06
0.506239
2.35548e-06
0.50624
2.49965e-06
0.50624
2.36908e-06
0.50624
2.27308e-06
0.506241
2.3712e-06
0.506241
2.47987e-06
0.506241
2.38098e-06
0.506241
2.09049e-06
0.506241
1.80434e-06
0.506242
1.72127e-06
0.506242
1.88051e-06
0.506243
2.10871e-06
0.506243
2.2242e-06
0.506243
2.26249e-06
0.506243
2.35982e-06
0.506243
2.50445e-06
0.506244
2.59459e-06
0.506244
2.6249e-06
0.506244
2.61587e-06
0.506243
2.50017e-06
0.506243
2.27217e-06
0.506244
2.09573e-06
0.506244
2.10453e-06
0.506244
2.23698e-06
0.506244
2.36904e-06
0.506243
2.46219e-06
0.506243
2.52147e-06
0.506243
2.55514e-06
0.506243
2.60179e-06
0.506243
2.70365e-06
0.506243
2.83861e-06
0.506243
2.91692e-06
0.506243
2.85056e-06
0.506242
2.62322e-06
0.506242
2.36098e-06
0.506242
2.24734e-06
0.506242
2.2997e-06
0.506242
2.34796e-06
0.506242
2.30534e-06
0.506242
2.29907e-06
0.506243
2.43797e-06
0.506243
2.6365e-06
0.506243
2.77057e-06
0.506243
2.8345e-06
0.506242
2.84407e-06
0.506242
2.74949e-06
0.506242
2.55221e-06
0.506242
2.37621e-06
0.506242
2.32263e-06
0.506243
2.34475e-06
0.506243
2.34172e-06
0.506243
2.27928e-06
0.506243
2.17108e-06
0.506243
2.04649e-06
0.506243
1.97133e-06
0.506244
1.99399e-06
0.506244
2.05136e-06
0.506245
2.03758e-06
0.506245
1.97799e-06
0.506246
2.00389e-06
0.506246
2.1406e-06
0.506247
2.25341e-06
0.506247
2.23216e-06
0.506247
2.11108e-06
0.506247
1.99668e-06
0.506248
1.97055e-06
0.506249
2.04268e-06
0.506249
2.12858e-06
0.50625
2.14892e-06
0.50625
2.15065e-06
0.50625
2.19552e-06
0.506251
2.21086e-06
0.506251
2.12359e-06
0.506252
2.01334e-06
0.506252
1.96991e-06
0.506253
1.956e-06
0.506254
1.94936e-06
0.506254
1.99893e-06
0.506255
2.06072e-06
0.506255
2.0389e-06
0.506256
1.94317e-06
2.03056e-06
0.506197
1.2644e-07
0.506198
8.14163e-07
0.506198
1.35407e-06
0.5062
8.81496e-07
0.506201
5.46877e-07
0.506201
1.61694e-06
0.5062
2.06787e-06
0.5062
2.30581e-06
0.5062
2.29034e-06
0.5062
2.42427e-06
0.5062
2.42555e-06
0.5062
2.56757e-06
0.506198
3.07771e-06
0.506196
2.80138e-06
0.506195
1.55912e-06
0.506196
1.424e-06
0.506197
2.04481e-06
0.506198
1.65273e-06
0.506201
1.14101e-06
0.506202
1.56313e-06
0.506203
2.45712e-06
0.506203
2.45501e-06
0.506203
1.86373e-06
0.506204
1.16669e-06
0.506204
1.1607e-06
0.506204
2.01243e-06
0.506203
2.55707e-06
0.506204
1.73883e-06
0.506205
7.69851e-07
0.506207
1.05453e-06
0.506208
1.98929e-06
0.506208
2.50886e-06
0.506208
2.53529e-06
0.506207
2.39243e-06
0.506207
2.10576e-06
0.506207
1.87642e-06
0.506207
2.01318e-06
0.506206
2.32561e-06
0.506205
2.47382e-06
0.506205
2.41795e-06
0.506204
2.39658e-06
0.506204
2.4538e-06
0.506203
2.35293e-06
0.506204
1.9623e-06
0.506205
1.5006e-06
0.506206
1.42331e-06
0.506207
1.88375e-06
0.506208
2.32165e-06
0.506208
2.18696e-06
0.506209
1.6366e-06
0.50621
1.23463e-06
0.506211
1.24664e-06
0.506212
1.48536e-06
0.506212
1.73377e-06
0.506213
1.97496e-06
0.506213
2.21969e-06
0.506214
2.29742e-06
0.506214
1.97283e-06
0.506215
1.40417e-06
0.506215
1.16897e-06
0.506216
1.59098e-06
0.506216
2.35383e-06
0.506215
2.92285e-06
0.506215
3.03659e-06
0.506215
2.74386e-06
0.506215
2.25561e-06
0.506215
1.86046e-06
0.506215
1.79256e-06
0.506215
2.04276e-06
0.506215
2.36816e-06
0.506215
2.54035e-06
0.506215
2.50207e-06
0.506214
2.32882e-06
0.506214
2.16607e-06
0.506214
2.10946e-06
0.506215
2.13004e-06
0.506215
2.14702e-06
0.506215
2.06784e-06
0.506215
1.87004e-06
0.506215
1.74812e-06
0.506215
1.92861e-06
0.506215
2.27666e-06
0.506214
2.42397e-06
0.506214
2.28669e-06
0.506214
2.08147e-06
0.506214
1.98855e-06
0.506214
2.07463e-06
0.506214
2.28858e-06
0.506214
2.41509e-06
0.506213
2.29788e-06
0.506213
2.09176e-06
0.506213
2.08549e-06
0.506213
2.31761e-06
0.506212
2.57126e-06
0.506212
2.7022e-06
0.506212
2.73433e-06
0.506212
2.6712e-06
0.506211
2.44084e-06
0.506211
2.05273e-06
0.506211
1.67514e-06
0.506211
1.50989e-06
0.506211
1.6269e-06
0.506212
1.89019e-06
0.506212
2.04846e-06
0.506212
1.98827e-06
0.506212
1.84725e-06
0.506213
1.8256e-06
0.506214
1.98205e-06
0.506215
2.18906e-06
0.506215
2.20321e-06
0.506215
1.91473e-06
0.506216
1.57148e-06
0.506217
1.51195e-06
0.506218
1.68901e-06
0.506218
1.80548e-06
0.506219
1.80084e-06
0.506219
1.83656e-06
0.50622
1.9156e-06
0.50622
1.8768e-06
0.50622
1.71674e-06
0.506221
1.63337e-06
0.506221
1.74726e-06
0.506222
1.98984e-06
0.506222
2.25959e-06
0.506222
2.46092e-06
0.506222
2.44018e-06
0.506222
2.12194e-06
0.506222
1.66961e-06
0.506222
1.32932e-06
0.506223
1.21109e-06
0.506223
1.35139e-06
0.506223
1.76513e-06
0.506223
2.25758e-06
0.506223
2.49635e-06
0.506223
2.38609e-06
0.506224
2.11234e-06
0.506225
1.82614e-06
0.506226
1.56111e-06
0.506228
1.36877e-06
0.506229
1.27324e-06
0.50623
1.21638e-06
0.506231
1.23529e-06
0.506232
1.49554e-06
0.506233
1.9401e-06
0.506234
2.2217e-06
0.506235
2.17456e-06
0.506235
2.00704e-06
0.506236
1.93226e-06
0.506236
1.9424e-06
0.506237
1.97483e-06
0.506237
2.02661e-06
0.506237
2.11504e-06
0.506237
2.25584e-06
0.506237
2.39392e-06
0.506236
2.38818e-06
0.506236
2.23152e-06
0.506235
2.13374e-06
0.506235
2.18585e-06
0.506234
2.20068e-06
0.506234
2.06737e-06
0.506234
1.94515e-06
0.506234
1.95767e-06
0.506233
2.03546e-06
0.506233
2.13193e-06
0.506233
2.25737e-06
0.506232
2.29984e-06
0.506232
2.18021e-06
0.506232
2.09521e-06
0.506232
2.25714e-06
0.506232
2.52312e-06
0.506232
2.60018e-06
0.506231
2.46998e-06
0.506231
2.33911e-06
0.506232
2.30199e-06
0.506232
2.27658e-06
0.506232
2.16635e-06
0.506232
1.95346e-06
0.506231
1.72965e-06
0.506232
1.65901e-06
0.506232
1.79915e-06
0.506232
2.00844e-06
0.506232
2.13845e-06
0.506233
2.20038e-06
0.506233
2.2336e-06
0.506233
2.19371e-06
0.506234
2.08589e-06
0.506234
2.00119e-06
0.506235
1.93322e-06
0.506235
1.77014e-06
0.506236
1.52043e-06
0.506237
1.34802e-06
0.506238
1.35224e-06
0.506239
1.48837e-06
0.506239
1.68902e-06
0.50624
1.90552e-06
0.50624
2.07237e-06
0.506241
2.13464e-06
0.506241
2.10429e-06
0.506242
2.03803e-06
0.506243
1.99386e-06
0.506244
1.98464e-06
0.506245
1.94156e-06
0.506245
1.80077e-06
0.506246
1.6433e-06
0.506247
1.62125e-06
0.506247
1.73173e-06
0.506248
1.82571e-06
0.506248
1.84715e-06
0.506249
1.87629e-06
0.506249
1.94322e-06
0.50625
1.99192e-06
0.506251
2.02437e-06
0.506252
2.10352e-06
0.506252
2.20302e-06
0.506253
2.20737e-06
0.506253
2.08467e-06
0.506253
1.93042e-06
0.506254
1.83008e-06
0.506254
1.79303e-06
0.506255
1.81241e-06
0.506255
1.87581e-06
0.506255
1.92873e-06
0.506255
1.93353e-06
0.506255
1.94071e-06
0.506255
2.00212e-06
0.506255
2.05739e-06
0.506255
2.02305e-06
0.506255
1.94506e-06
0.506256
1.94274e-06
0.506256
2.04062e-06
0.506256
2.15951e-06
0.506256
2.23053e-06
0.506255
2.23381e-06
0.506255
2.19104e-06
0.506255
2.16727e-06
0.506255
2.1917e-06
0.506255
2.20291e-06
0.506255
2.17775e-06
0.506255
2.20025e-06
0.506255
2.2936e-06
0.506255
2.354e-06
0.506254
2.33714e-06
0.506254
2.30332e-06
0.506254
2.24786e-06
0.506254
2.12989e-06
0.506254
2.03635e-06
0.506254
2.0755e-06
0.506253
2.17829e-06
0.506253
2.25848e-06
2.19632e-06
0.506194
3.22015e-07
0.506195
4.53038e-07
0.506194
1.52723e-06
0.506193
2.7665e-06
0.506191
2.36953e-06
0.506191
1.15675e-06
0.506193
5.56232e-07
0.506194
5.80705e-07
0.506196
6.85837e-07
0.506197
9.80808e-07
0.506198
1.45879e-06
0.5062
1.39201e-06
0.506201
1.32823e-06
0.506202
1.92312e-06
0.506202
2.19093e-06
0.506202
1.50546e-06
0.506202
1.08451e-06
0.506203
1.22121e-06
0.506203
1.32133e-06
0.506203
1.4965e-06
0.506203
1.80007e-06
0.506204
1.78713e-06
0.506204
1.72538e-06
0.506203
2.42061e-06
0.506201
2.96805e-06
0.506201
2.60991e-06
0.506201
2.18563e-06
0.506201
1.95059e-06
0.5062
1.78667e-06
0.506199
1.7562e-06
0.506199
1.68731e-06
0.5062
1.57685e-06
0.506201
1.54729e-06
0.506202
1.65215e-06
0.506202
1.75759e-06
0.506202
1.79869e-06
0.506203
1.8347e-06
0.506203
1.79162e-06
0.506204
1.6181e-06
0.506205
1.55615e-06
0.506205
1.80303e-06
0.506206
2.0931e-06
0.506206
2.03556e-06
0.506206
1.69796e-06
0.506207
1.41673e-06
0.506206
1.42635e-06
0.506207
1.7583e-06
0.506207
2.13056e-06
0.506207
2.19087e-06
0.506207
1.94315e-06
0.506206
1.75464e-06
0.506205
1.9253e-06
0.506204
2.36927e-06
0.506203
2.7543e-06
0.506203
2.81081e-06
0.506202
2.53147e-06
0.506202
2.11515e-06
0.506203
1.69153e-06
0.506203
1.31927e-06
0.506203
1.20434e-06
0.506203
1.5309e-06
0.506203
2.08751e-06
0.506204
2.39515e-06
0.506204
2.20393e-06
0.506206
1.67382e-06
0.506207
1.13071e-06
0.506208
8.02776e-07
0.506209
7.51688e-07
0.50621
9.05845e-07
0.506211
1.12284e-06
0.506212
1.32083e-06
0.506213
1.52391e-06
0.506214
1.73805e-06
0.506214
1.90938e-06
0.506214
1.97405e-06
0.506215
1.9103e-06
0.506215
1.82004e-06
0.506215
1.82995e-06
0.506215
1.88643e-06
0.506215
1.87337e-06
0.506215
1.8653e-06
0.506215
1.9527e-06
0.506216
1.99669e-06
0.506216
1.86623e-06
0.506217
1.6416e-06
0.506217
1.42791e-06
0.506218
1.27685e-06
0.506219
1.25695e-06
0.50622
1.34813e-06
0.506221
1.40259e-06
0.506222
1.3737e-06
0.506222
1.43591e-06
0.506223
1.72343e-06
0.506223
2.08248e-06
0.506224
2.25325e-06
0.506224
2.18198e-06
0.506225
2.0123e-06
0.506226
1.86595e-06
0.506226
1.74746e-06
0.506226
1.61937e-06
0.506226
1.48507e-06
0.506226
1.41868e-06
0.506227
1.50352e-06
0.506227
1.69741e-06
0.506227
1.85166e-06
0.506227
1.89003e-06
0.506227
1.85542e-06
0.506227
1.83535e-06
0.506227
1.90792e-06
0.506228
2.02593e-06
0.506228
1.99287e-06
0.506227
1.76603e-06
0.506227
1.62869e-06
0.506227
1.78942e-06
0.506227
2.0532e-06
0.506227
2.13233e-06
0.506226
2.04639e-06
0.506226
1.98185e-06
0.506226
1.98184e-06
0.506226
1.98554e-06
0.506226
2.02427e-06
0.506225
2.1591e-06
0.506225
2.31784e-06
0.506225
2.38036e-06
0.506225
2.32751e-06
0.506225
2.17337e-06
0.506225
1.89949e-06
0.506225
1.5804e-06
0.506225
1.3923e-06
0.506225
1.39634e-06
0.506225
1.52088e-06
0.506225
1.77314e-06
0.506225
2.15313e-06
0.506225
2.45774e-06
0.506225
2.45897e-06
0.506225
2.18373e-06
0.506225
1.82091e-06
0.506225
1.50835e-06
0.506225
1.34961e-06
0.506225
1.40976e-06
0.506225
1.56161e-06
0.506224
1.60169e-06
0.506224
1.58567e-06
0.506224
1.72183e-06
0.506225
1.96396e-06
0.506225
2.07034e-06
0.506225
1.99296e-06
0.506225
1.88562e-06
0.506225
1.83471e-06
0.506225
1.81604e-06
0.506225
1.79151e-06
0.506226
1.73716e-06
0.506226
1.69625e-06
0.506227
1.74828e-06
0.506227
1.82648e-06
0.506228
1.76699e-06
0.506228
1.61165e-06
0.506229
1.56948e-06
0.50623
1.64541e-06
0.50623
1.64706e-06
0.50623
1.53352e-06
0.506231
1.42037e-06
0.506232
1.33405e-06
0.506232
1.27141e-06
0.506233
1.33931e-06
0.506234
1.54755e-06
0.506235
1.69455e-06
0.506235
1.68021e-06
0.506236
1.68675e-06
0.506236
1.84475e-06
0.506237
1.9942e-06
0.506237
1.94261e-06
0.506238
1.73102e-06
0.506239
1.52106e-06
0.50624
1.40638e-06
0.50624
1.38879e-06
0.506241
1.40556e-06
0.506241
1.38715e-06
0.506242
1.37109e-06
0.506242
1.47444e-06
0.506242
1.70041e-06
0.506243
1.91906e-06
0.506243
2.06601e-06
0.506243
2.16921e-06
0.506243
2.19083e-06
0.506243
2.06595e-06
0.506243
1.87302e-06
0.506243
1.75185e-06
0.506243
1.69766e-06
0.506243
1.61849e-06
0.506243
1.52399e-06
0.506243
1.49552e-06
0.506243
1.55711e-06
0.506243
1.68945e-06
0.506243
1.88263e-06
0.506243
2.1011e-06
0.506242
2.26757e-06
0.506242
2.31745e-06
0.506242
2.23743e-06
0.506242
2.07645e-06
0.506242
1.93255e-06
0.506242
1.85401e-06
0.506242
1.77024e-06
0.506242
1.62187e-06
0.506242
1.50142e-06
0.506243
1.5261e-06
0.506243
1.64994e-06
0.506243
1.75219e-06
0.506243
1.82108e-06
0.506243
1.89975e-06
0.506243
1.94665e-06
0.506243
1.90148e-06
0.506243
1.81707e-06
0.506244
1.78981e-06
0.506244
1.81155e-06
0.506244
1.80457e-06
0.506245
1.74901e-06
0.506245
1.67858e-06
0.506245
1.60515e-06
0.506245
1.53674e-06
0.506246
1.51135e-06
0.506246
1.53505e-06
0.506246
1.55358e-06
0.506247
1.55154e-06
0.506247
1.59438e-06
0.506248
1.70411e-06
0.506248
1.78915e-06
0.506248
1.76896e-06
0.506248
1.68639e-06
0.506249
1.6309e-06
0.506249
1.63021e-06
0.50625
1.66754e-06
0.50625
1.71316e-06
0.506251
1.72855e-06
0.506251
1.72487e-06
0.506252
1.75779e-06
0.506252
1.8023e-06
0.506252
1.77372e-06
0.506253
1.69728e-06
0.506253
1.6709e-06
0.506254
1.68666e-06
0.506255
1.67709e-06
0.506255
1.67379e-06
0.506256
1.7155e-06
0.506256
1.71523e-06
0.506257
1.62073e-06
0.506257
1.53e-06
0.506258
1.52321e-06
0.506259
1.54617e-06
1.65523e-06
0.506195
3.19443e-07
0.506195
1.69263e-07
0.506197
-3.99519e-07
0.5062
3.46826e-07
0.5062
1.64208e-06
0.506199
2.50977e-06
0.506197
2.18089e-06
0.506196
1.77735e-06
0.506195
2.05234e-06
0.506194
2.12061e-06
0.506194
1.3492e-06
0.506195
6.56465e-07
0.506195
1.21079e-06
0.506195
1.7411e-06
0.506195
1.78911e-06
0.506195
1.3586e-06
0.506195
1.52511e-06
0.506194
2.30095e-06
0.506192
2.72909e-06
0.506192
2.05019e-06
0.506193
8.97971e-07
0.506193
1.20221e-06
0.506193
1.85584e-06
0.506194
1.73183e-06
0.506196
1.10962e-06
0.506198
7.04254e-07
0.506199
1.12591e-06
0.506199
1.53409e-06
0.5062
1.46783e-06
0.5062
1.35553e-06
0.5062
1.22344e-06
0.506201
9.68036e-07
0.506202
7.73234e-07
0.506202
9.62846e-07
0.506203
1.44631e-06
0.506203
1.79052e-06
0.506203
1.79594e-06
0.506203
1.64562e-06
0.506203
1.59586e-06
0.506203
1.64138e-06
0.506203
1.57807e-06
0.506204
1.30235e-06
0.506205
1.03159e-06
0.506206
1.127e-06
0.506205
1.54305e-06
0.506205
1.83146e-06
0.506205
1.79481e-06
0.506205
1.63581e-06
0.506206
1.50719e-06
0.506207
1.33019e-06
0.506207
1.09983e-06
0.506208
1.05565e-06
0.506209
1.39325e-06
0.50621
1.93741e-06
0.506211
2.20723e-06
0.506211
1.8967e-06
0.506212
1.27619e-06
0.506213
8.92375e-07
0.506213
9.80182e-07
0.506213
1.37719e-06
0.506213
1.85589e-06
0.506213
2.23311e-06
0.506213
2.34573e-06
0.506213
2.16651e-06
0.506213
1.87657e-06
0.506212
1.69887e-06
0.506211
1.69232e-06
0.50621
1.75684e-06
0.506209
1.78855e-06
0.506209
1.75299e-06
0.506208
1.69332e-06
0.506208
1.70053e-06
0.506208
1.77967e-06
0.506208
1.81943e-06
0.506208
1.70921e-06
0.506209
1.42361e-06
0.50621
1.10984e-06
0.50621
1.04172e-06
0.506211
1.29221e-06
0.506211
1.57783e-06
0.506211
1.65917e-06
0.506212
1.60779e-06
0.506212
1.54992e-06
0.506213
1.52399e-06
0.506213
1.58106e-06
0.506212
1.69441e-06
0.506212
1.71854e-06
0.506212
1.62119e-06
0.506211
1.54376e-06
0.506211
1.56794e-06
0.506211
1.62856e-06
0.506211
1.70237e-06
0.50621
1.87053e-06
0.50621
2.10994e-06
0.50621
2.22337e-06
0.506211
2.06945e-06
0.506211
1.73612e-06
0.506211
1.43792e-06
0.506212
1.31151e-06
0.506212
1.33301e-06
0.506212
1.3647e-06
0.506212
1.30143e-06
0.506213
1.20858e-06
0.506213
1.2347e-06
0.506213
1.40496e-06
0.506214
1.61411e-06
0.506214
1.73198e-06
0.506214
1.67544e-06
0.506214
1.5125e-06
0.506215
1.42424e-06
0.506216
1.42928e-06
0.506216
1.35569e-06
0.506216
1.19669e-06
0.506217
1.17452e-06
0.506218
1.351e-06
0.506218
1.4828e-06
0.506219
1.38593e-06
0.50622
1.17036e-06
0.506221
1.03557e-06
0.506222
1.04109e-06
0.506223
1.16945e-06
0.506223
1.40692e-06
0.506224
1.6545e-06
0.506225
1.73442e-06
0.506225
1.58096e-06
0.506226
1.28528e-06
0.506227
9.43251e-07
0.506228
6.41152e-07
0.506229
5.51395e-07
0.50623
7.8453e-07
0.50623
1.1801e-06
0.50623
1.53851e-06
0.506231
1.82917e-06
0.506231
2.04033e-06
0.506231
2.06207e-06
0.506232
1.86143e-06
0.506232
1.56196e-06
0.506232
1.28046e-06
0.506232
1.09573e-06
0.506233
1.14924e-06
0.506233
1.47342e-06
0.506233
1.80954e-06
0.506232
1.90944e-06
0.506232
1.85725e-06
0.506232
1.83983e-06
0.506232
1.82917e-06
0.506233
1.72457e-06
0.506233
1.57229e-06
0.506233
1.47315e-06
0.506234