/*--------------------------------*- C++ -*----------------------------------*\
| =========                 |                                                 |
| \\      /  F ield         | OpenFOAM: The Open Source CFD Toolbox           |
|  \\    /   O peration     | Version:  2406                                  |
|   \\  /    A nd           | Website:  www.openfoam.com                      |
|    \\/     M anipulation  |                                                 |
\*---------------------------------------------------------------------------*/
FoamFile
{
    version     2.0;
    format      ascii;
    arch        "LSB;label=32;scalar=64";
    class       surfaceScalarField;
    location    "0.95";
    object      phi;
}
// * * * * * * * * * * * * * * * * * * * * * * * * * * * * * * * * * * * * * //

dimensions      [0 3 -1 0 0 0 0];

oriented        oriented;

internalField   nonuniform List<scalar> 
12225
(
0.506226
2.30694e-06
0.506219
6.29184e-06
0.506212
7.55987e-06
0.506206
5.61402e-06
0.506201
4.90473e-06
0.506196
5.42976e-06
0.506191
5.26307e-06
0.506185
5.45406e-06
0.50618
5.58691e-06
0.506174
5.47862e-06
0.506169
5.31258e-06
0.506163
5.57894e-06
0.506157
6.02511e-06
0.506152
5.55176e-06
0.506147
4.66229e-06
0.506143
4.11022e-06
0.506139
3.88942e-06
0.506135
3.93488e-06
0.50613
4.60958e-06
0.506125
5.70536e-06
0.506118
6.2535e-06
0.506112
6.09442e-06
0.506107
5.69299e-06
0.506102
5.15014e-06
0.506097
4.83273e-06
0.506092
5.06908e-06
0.506086
5.19858e-06
0.506082
4.85922e-06
0.506077
4.8298e-06
0.506071
5.28506e-06
0.506066
5.44561e-06
0.506061
5.2224e-06
0.506056
5.20833e-06
0.50605
5.62968e-06
0.506044
6.24145e-06
0.506037
6.40237e-06
0.506031
5.88967e-06
0.506026
5.17292e-06
0.506022
4.70775e-06
0.506017
4.76888e-06
0.506011
5.27818e-06
0.506006
5.79558e-06
0.506
5.94385e-06
0.505994
5.77022e-06
0.505988
5.64576e-06
0.505983
5.69733e-06
0.505977
5.73088e-06
0.505971
5.75624e-06
0.505965
5.84016e-06
0.505959
5.84476e-06
0.505954
5.68206e-06
0.505948
5.38768e-06
0.505943
5.17899e-06
0.505938
5.33111e-06
0.505932
5.75257e-06
0.505926
6.06615e-06
0.50592
6.10616e-06
0.505914
5.96551e-06
0.505908
5.73979e-06
0.505903
5.41864e-06
0.505898
5.07783e-06
0.505893
5.00372e-06
0.505887
5.37141e-06
0.505881
5.92802e-06
0.505875
6.24239e-06
0.505869
6.15397e-06
0.505863
5.81579e-06
0.505858
5.44975e-06
0.505853
5.18274e-06
0.505848
5.05145e-06
0.505842
5.11837e-06
0.505837
5.4682e-06
0.505831
5.9495e-06
0.505825
6.13581e-06
0.505819
5.85296e-06
0.505814
5.44191e-06
0.505808
5.29645e-06
0.505803
5.42512e-06
0.505797
5.62228e-06
0.505792
5.6465e-06
0.505786
5.37684e-06
0.505781
5.02223e-06
0.505776
4.99545e-06
0.505771
5.34184e-06
0.505765
5.65276e-06
0.50576
5.58336e-06
0.505754
5.2329e-06
0.505749
4.95216e-06
0.505744
4.95442e-06
0.505739
5.15008e-06
0.505734
5.26639e-06
0.505729
5.14585e-06
0.505724
4.93892e-06
0.505719
4.92739e-06
0.505714
5.18011e-06
0.505708
5.51425e-06
0.505703
5.77915e-06
0.505697
5.97371e-06
0.505691
6.0435e-06
0.505685
5.79321e-06
0.50568
5.17588e-06
0.505675
4.52227e-06
0.505671
4.2815e-06
0.505666
4.57603e-06
0.505661
5.10726e-06
0.505656
5.44594e-06
0.50565
5.40313e-06
0.505645
5.18331e-06
0.50564
5.11945e-06
0.505635
5.24942e-06
0.505629
5.29449e-06
0.505624
5.07437e-06
0.50562
4.76051e-06
0.505615
4.62921e-06
0.50561
4.71996e-06
0.505605
4.87212e-06
0.5056
4.92445e-06
0.505596
4.85715e-06
0.505591
4.78377e-06
0.505586
4.82528e-06
0.505581
4.97873e-06
0.505576
5.16691e-06
0.50557
5.38094e-06
0.505565
5.61639e-06
0.505559
5.73655e-06
0.505553
5.63665e-06
0.505548
5.44726e-06
0.505543
5.36732e-06
0.505537
5.39045e-06
0.505532
5.42143e-06
0.505526
5.50099e-06
0.505521
5.70528e-06
0.505515
5.99273e-06
0.505508
6.27133e-06
0.505502
6.41751e-06
0.505496
6.26691e-06
0.50549
5.88345e-06
0.505484
5.6484e-06
0.505478
5.84515e-06
0.505472
6.2994e-06
0.505465
6.65441e-06
0.505459
6.71756e-06
0.505452
6.51133e-06
0.505446
6.17939e-06
0.50544
5.9673e-06
0.505434
5.96122e-06
0.505428
5.95363e-06
0.505422
5.80426e-06
0.505417
5.68666e-06
0.505411
5.75775e-06
0.505405
5.85971e-06
0.505399
5.8144e-06
0.505393
5.72014e-06
0.505388
5.71455e-06
0.505382
5.71077e-06
0.505376
5.55616e-06
0.505371
5.27668e-06
0.505366
5.05657e-06
0.505361
5.07107e-06
0.505356
5.31432e-06
0.50535
5.54512e-06
0.505345
5.51249e-06
0.505339
5.27073e-06
0.505334
5.12983e-06
0.505329
5.23845e-06
0.505324
5.40714e-06
0.505318
5.38522e-06
0.505313
5.15196e-06
0.505308
4.87782e-06
0.505303
4.75917e-06
0.505299
4.87215e-06
0.505293
5.08608e-06
0.505288
5.12341e-06
0.505283
4.88993e-06
0.505279
4.61957e-06
0.505274
4.56661e-06
0.50527
4.66166e-06
0.505265
4.70347e-06
0.50526
4.66121e-06
0.505256
4.62664e-06
0.505251
4.64783e-06
0.505246
4.72912e-06
0.505241
4.84469e-06
0.505236
4.92194e-06
0.505232
4.89607e-06
0.505227
4.76524e-06
0.505222
4.54097e-06
0.505218
4.28112e-06
0.505214
4.16395e-06
0.50521
4.31023e-06
0.505205
4.55271e-06
0.5052
4.60215e-06
0.505196
4.46724e-06
0.505191
4.43322e-06
0.505187
4.62633e-06
0.505182
4.85543e-06
0.505177
4.88586e-06
0.505172
4.69559e-06
0.505168
4.4171e-06
0.505164
4.21651e-06
0.50516
4.2225e-06
0.505155
4.42706e-06
0.50515
4.69626e-06
0.505146
4.89272e-06
0.505141
4.98935e-06
0.505136
5.01371e-06
0.505131
4.98698e-06
0.505126
4.96493e-06
0.505121
5.0245e-06
0.505115
5.14226e-06
0.50511
5.20702e-06
0.505105
5.18752e-06
0.5051
5.16313e-06
0.505095
5.18439e-06
0.505089
5.23002e-06
0.505084
5.26702e-06
0.505079
5.23329e-06
0.505074
5.06818e-06
0.505069
4.86456e-06
0.505064
4.82337e-06
0.505059
4.98542e-06
0.505054
5.17495e-06
0.505049
5.24154e-06
0.505044
5.19348e-06
0.505038
5.10761e-06
0.505033
5.0638e-06
0.505028
5.0891e-06
0.505023
5.08708e-06
0.505018
4.95347e-06
0.505013
4.778e-06
0.505009
4.75017e-06
0.505004
4.85883e-06
0.504999
4.90555e-06
0.504994
4.79551e-06
0.50499
4.60765e-06
0.504985
4.41728e-06
0.504981
4.23994e-06
0.504977
4.10929e-06
0.504973
4.06451e-06
0.504969
4.08719e-06
0.504965
4.12007e-06
0.50496
4.11382e-06
0.504956
4.03137e-06
0.504953
3.87084e-06
0.504949
3.71504e-06
0.504945
3.64448e-06
0.504942
3.63068e-06
0.504938
3.53467e-06
0.504934
3.58736e-06
3.19083e-06
0.506231
-5.46918e-07
0.506238
-8.10398e-07
0.506245
3.73044e-07
0.506249
2.13417e-06
0.50625
3.12522e-06
0.506252
3.66294e-06
0.506254
3.23864e-06
0.506257
2.30737e-06
0.506261
1.7595e-06
0.506265
1.66284e-06
0.506268
1.81502e-06
0.506272
1.49917e-06
0.506277
1.64071e-06
0.50628
2.76021e-06
0.50628
4.12514e-06
0.50628
4.41534e-06
0.50628
3.63038e-06
0.506281
2.70102e-06
0.506284
1.78954e-06
0.506288
1.39967e-06
0.506293
1.60355e-06
0.506297
1.81168e-06
0.506301
2.06134e-06
0.506304
2.45323e-06
0.506306
2.72246e-06
0.506308
2.83558e-06
0.50631
2.97837e-06
0.506312
2.8901e-06
0.506315
2.55866e-06
0.506317
2.45744e-06
0.50632
2.57192e-06
0.506323
2.38187e-06
0.506326
1.9205e-06
0.50633
1.65813e-06
0.506335
1.94937e-06
0.506338
2.65043e-06
0.506341
3.14305e-06
0.506343
3.18553e-06
0.506345
2.9918e-06
0.506347
2.71444e-06
0.50635
2.45123e-06
0.506353
2.33661e-06
0.506357
2.40734e-06
0.50636
2.46724e-06
0.506363
2.43781e-06
0.506366
2.44133e-06
0.50637
2.36247e-06
0.506373
2.13511e-06
0.506377
2.11161e-06
0.506381
2.48561e-06
0.506383
2.9938e-06
0.506386
3.12329e-06
0.506388
2.66769e-06
0.506391
2.14009e-06
0.506395
2.23881e-06
0.506398
2.8747e-06
0.506401
3.32352e-06
0.506404
3.14655e-06
0.506407
2.62892e-06
0.50641
2.27767e-06
0.506413
2.18234e-06
0.506416
2.13788e-06
0.506419
2.14779e-06
0.506422
2.37126e-06
0.506426
2.76969e-06
0.506429
3.04657e-06
0.506432
2.94828e-06
0.506435
2.50981e-06
0.506438
2.04516e-06
0.506441
1.84997e-06
0.506444
1.93834e-06
0.506448
2.17681e-06
0.506451
2.50339e-06
0.506454
2.80243e-06
0.506457
2.86954e-06
0.50646
2.72703e-06
0.506463
2.61785e-06
0.506466
2.59874e-06
0.506469
2.58002e-06
0.506472
2.60497e-06
0.506474
2.65051e-06
0.506477
2.55664e-06
0.506479
2.37343e-06
0.506482
2.39138e-06
0.506485
2.64287e-06
0.506488
2.79224e-06
0.506491
2.60203e-06
0.506494
2.21884e-06
0.506497
1.96753e-06
0.5065
2.0526e-06
0.506502
2.38136e-06
0.506505
2.62846e-06
0.506507
2.57114e-06
0.50651
2.39702e-06
0.506513
2.4686e-06
0.506515
2.82532e-06
0.506518
3.12559e-06
0.506521
3.12788e-06
0.506524
2.98001e-06
0.506527
2.90857e-06
0.506529
2.86098e-06
0.506531
2.65229e-06
0.506533
2.2984e-06
0.506535
2.05224e-06
0.506538
2.14794e-06
0.506541
2.52662e-06
0.506544
2.80619e-06
0.506546
2.66558e-06
0.506549
2.24432e-06
0.506553
2.00863e-06
0.506556
2.20233e-06
0.506558
2.58446e-06
0.50656
2.75758e-06
0.506562
2.57724e-06
0.506565
2.24067e-06
0.506567
2.04848e-06
0.50657
2.10481e-06
0.506573
2.25565e-06
0.506575
2.33309e-06
0.506578
2.37366e-06
0.50658
2.48322e-06
0.506583
2.59903e-06
0.506586
2.60942e-06
0.506589
2.59454e-06
0.506592
2.66675e-06
0.506595
2.72295e-06
0.506597
2.63273e-06
0.5066
2.49229e-06
0.506603
2.4283e-06
0.506606
2.37593e-06
0.50661
2.26663e-06
0.506613
2.15856e-06
0.506617
2.08887e-06
0.506621
2.09823e-06
0.506625
2.34024e-06
0.506629
2.76549e-06
0.506632
3.00085e-06
0.506635
2.77689e-06
0.506638
2.3268e-06
0.506642
1.98628e-06
0.506647
1.8852e-06
0.506652
2.02561e-06
0.506656
2.24374e-06
0.50666
2.28907e-06
0.506664
2.1263e-06
0.506668
2.08212e-06
0.506671
2.35014e-06
0.506674
2.66361e-06
0.506677
2.74194e-06
0.50668
2.6999e-06
0.506684
2.70071e-06
0.506687
2.65551e-06
0.50669
2.48479e-06
0.506693
2.34866e-06
0.506697
2.41376e-06
0.5067
2.63689e-06
0.506702
2.83409e-06
0.506704
2.83136e-06
0.506707
2.63166e-06
0.50671
2.49123e-06
0.506712
2.63786e-06
0.506715
2.91745e-06
0.506717
2.95122e-06
0.50672
2.64994e-06
0.506723
2.3146e-06
0.506726
2.2455e-06
0.506729
2.46033e-06
0.506731
2.77458e-06
0.506733
2.9385e-06
0.506735
2.80277e-06
0.506737
2.51031e-06
0.50674
2.40226e-06
0.506743
2.56996e-06
0.506745
2.70884e-06
0.506747
2.56357e-06
0.506749
2.30462e-06
0.506752
2.22203e-06
0.506754
2.3311e-06
0.506756
2.47155e-06
0.506758
2.54618e-06
0.50676
2.53538e-06
0.506763
2.47621e-06
0.506765
2.44732e-06
0.506767
2.48392e-06
0.50677
2.55206e-06
0.506772
2.64059e-06
0.506774
2.72199e-06
0.506775
2.65186e-06
0.506777
2.36429e-06
0.506779
2.08922e-06
0.506782
2.10022e-06
0.506784
2.30142e-06
0.506786
2.36387e-06
0.506789
2.20714e-06
0.506791
2.06065e-06
0.506794
2.12099e-06
0.506796
2.37262e-06
0.506798
2.68821e-06
0.5068
2.92898e-06
0.506801
2.9596e-06
0.506803
2.76985e-06
0.506804
2.50698e-06
0.506807
2.33251e-06
0.506809
2.28816e-06
0.506812
2.32174e-06
0.506815
2.37339e-06
0.506817
2.3986e-06
0.50682
2.39401e-06
0.506822
2.42805e-06
0.506825
2.55959e-06
0.506828
2.71893e-06
0.50683
2.7786e-06
0.506832
2.70915e-06
0.506835
2.56749e-06
0.506838
2.42206e-06
0.506841
2.37881e-06
0.506843
2.51693e-06
0.506846
2.71079e-06
0.506848
2.71953e-06
0.50685
2.51115e-06
0.506853
2.2851e-06
0.506856
2.19386e-06
0.506859
2.22722e-06
0.506862
2.31796e-06
0.506865
2.38924e-06
0.506867
2.39537e-06
0.50687
2.42349e-06
0.506872
2.57495e-06
0.506875
2.73613e-06
0.506877
2.69526e-06
0.506879
2.47971e-06
0.506881
2.3213e-06
0.506884
2.32436e-06
0.506886
2.40901e-06
0.506889
2.51342e-06
0.50689
2.62404e-06
0.506892
2.69094e-06
0.506893
2.6743e-06
0.506895
2.60183e-06
0.506896
2.51516e-06
0.506898
2.44577e-06
0.5069
2.44428e-06
0.506901
2.53085e-06
0.506902
2.6307e-06
0.506903
2.66294e-06
0.506904
2.659e-06
0.506905
2.6866e-06
0.506906
2.67856e-06
0.506907
2.63139e-06
2.52789e-06
0.50623
1.41518e-07
0.506227
1.41415e-06
0.506226
2.12072e-06
0.506226
1.7775e-06
0.506227
1.63595e-06
0.506229
1.72699e-06
0.50623
2.11073e-06
0.50623
2.39294e-06
0.50623
2.39074e-06
0.506229
2.41663e-06
0.506228
2.34928e-06
0.506227
2.49002e-06
0.506227
2.35544e-06
0.506228
1.36628e-06
0.506232
5.10613e-07
0.506235
1.14289e-06
0.506236
2.20011e-06
0.506236
2.78308e-06
0.506235
3.14312e-06
0.506233
3.24935e-06
0.506232
3.02519e-06
0.506231
2.59911e-06
0.506231
2.29006e-06
0.506231
2.33543e-06
0.506231
2.16363e-06
0.506233
1.64774e-06
0.506234
1.65372e-06
0.506235
2.17966e-06
0.506235
2.56779e-06
0.506235
2.51981e-06
0.506235
2.29153e-06
0.506235
2.24314e-06
0.506235
2.40125e-06
0.506234
2.43549e-06
0.506234
2.15723e-06
0.506234
1.82226e-06
0.506236
1.70008e-06
0.506237
1.7772e-06
0.506238
1.92227e-06
0.506239
1.99091e-06
0.50624
1.93122e-06
0.50624
1.81658e-06
0.506241
1.85421e-06
0.506241
2.06978e-06
0.506241
2.2881e-06
0.506241
2.53556e-06
0.506241
2.80462e-06
0.50624
2.87744e-06
0.506239
2.75458e-06
0.506239
2.60012e-06
0.50624
2.50284e-06
0.50624
2.44734e-06
0.506241
2.28613e-06
0.506241
2.05573e-06
0.506241
2.10563e-06
0.506241
2.54127e-06
0.506242
2.93239e-06
0.506242
2.7973e-06
0.506242
2.22648e-06
0.506243
1.7991e-06
0.506243
1.86421e-06
0.506243
2.20255e-06
0.506243
2.46439e-06
0.506243
2.57651e-06
0.506243
2.61593e-06
0.506243
2.5618e-06
0.506244
2.3362e-06
0.506244
1.98355e-06
0.506245
1.74769e-06
0.506245
1.87202e-06
0.506244
2.24191e-06
0.506244
2.45091e-06
0.506244
2.33622e-06
0.506245
2.14375e-06
0.506246
2.08504e-06
0.506246
2.14838e-06
0.506247
2.2842e-06
0.506247
2.34825e-06
0.506247
2.15719e-06
0.506248
1.8574e-06
0.506249
1.80302e-06
0.506249
1.997e-06
0.50625
2.11345e-06
0.50625
2.02957e-06
0.506251
1.92857e-06
0.506252
1.95964e-06
0.506252
2.08517e-06
0.506252
2.19333e-06
0.506252
2.17931e-06
0.506252
2.03895e-06
0.506252
1.901e-06
0.506253
1.87849e-06
0.506254
1.9308e-06
0.506254
1.99171e-06
0.506255
2.14309e-06
0.506255
2.45561e-06
0.506255
2.72047e-06
0.506256
2.60268e-06
0.506257
2.09359e-06
0.506258
1.5955e-06
0.506259
1.48019e-06
0.50626
1.73247e-06
0.506261
2.05426e-06
0.50626
2.18113e-06
0.50626
2.11973e-06
0.506261
2.12324e-06
0.506261
2.35511e-06
0.506261
2.6474e-06
0.506261
2.71936e-06
0.50626
2.55734e-06
0.50626
2.40597e-06
0.50626
2.43053e-06
0.50626
2.54976e-06
0.50626
2.58213e-06
0.50626
2.44992e-06
0.50626
2.25908e-06
0.50626
2.18396e-06
0.50626
2.25133e-06
0.50626
2.30093e-06
0.50626
2.23265e-06
0.50626
2.16528e-06
0.506261
2.21679e-06
0.506261
2.30961e-06
0.506261
2.36091e-06
0.506262
2.42488e-06
0.506262
2.48295e-06
0.506262
2.36463e-06
0.506263
2.04608e-06
0.506263
1.7368e-06
0.506264
1.58747e-06
0.506265
1.60135e-06
0.506265
1.78496e-06
0.506265
2.06798e-06
0.506265
2.26345e-06
0.506265
2.35622e-06
0.506265
2.53385e-06
0.506265
2.80893e-06
0.506265
2.93515e-06
0.506265
2.80489e-06
0.506264
2.55951e-06
0.506264
2.35539e-06
0.506263
2.31298e-06
0.506263
2.52049e-06
0.506263
2.8373e-06
0.506262
2.93242e-06
0.506261
2.75889e-06
0.506261
2.61519e-06
0.506261
2.63159e-06
0.506261
2.61779e-06
0.506261
2.50002e-06
0.506261
2.43373e-06
0.506262
2.44466e-06
0.506262
2.36412e-06
0.506262
2.1315e-06
0.506263
1.87207e-06
0.506263
1.72425e-06
0.506265
1.73901e-06
0.506266
1.83067e-06
0.506266
1.80688e-06
0.506267
1.61395e-06
0.506268
1.48608e-06
0.50627
1.64901e-06
0.506271
1.97518e-06
0.506271
2.14341e-06
0.506271
2.03949e-06
0.506272
1.81759e-06
0.506273
1.68328e-06
0.506274
1.77097e-06
0.506274
2.07092e-06
0.506275
2.37019e-06
0.506275
2.42561e-06
0.506275
2.28694e-06
0.506275
2.24142e-06
0.506276
2.36768e-06
0.506276
2.42409e-06
0.506276
2.26002e-06
0.506276
2.01526e-06
0.506277
1.86485e-06
0.506277
1.84572e-06
0.506278
1.93708e-06
0.506278
2.09416e-06
0.506279
2.24738e-06
0.506279
2.36927e-06
0.506279
2.46657e-06
0.506279
2.50681e-06
0.506279
2.49194e-06
0.506279
2.52037e-06
0.506279
2.59856e-06
0.506279
2.54273e-06
0.506279
2.26974e-06
0.506279
2.01762e-06
0.506279
2.03899e-06
0.506279
2.25989e-06
0.506279
2.43741e-06
0.506279
2.48929e-06
0.506278
2.49809e-06
0.506278
2.52834e-06
0.506278
2.60509e-06
0.506278
2.74608e-06
0.506278
2.89449e-06
0.506278
2.93101e-06
0.506278
2.80516e-06
0.506278
2.58977e-06
0.506277
2.38893e-06
0.506278
2.26613e-06
0.506278
2.24919e-06
0.506278
2.31299e-06
0.506278
2.37513e-06
0.506278
2.39674e-06
0.506278
2.44812e-06
0.506278
2.58864e-06
0.506278
2.75845e-06
0.506278
2.86706e-06
0.506278
2.87523e-06
0.506277
2.74794e-06
0.506277
2.50032e-06
0.506277
2.29267e-06
0.506278
2.27477e-06
0.506278
2.3659e-06
0.506278
2.37699e-06
0.506278
2.26922e-06
0.506278
2.13152e-06
0.506279
2.03042e-06
0.506279
2.00236e-06
0.506279
2.04034e-06
0.50628
2.04427e-06
0.50628
1.96188e-06
0.506281
1.92464e-06
0.506281
2.04959e-06
0.506282
2.21592e-06
0.506282
2.24588e-06
0.506282
2.16144e-06
0.506283
2.08418e-06
0.506283
2.03871e-06
0.506283
2.0086e-06
0.506284
2.02459e-06
0.506285
2.09548e-06
0.506285
2.17486e-06
0.506285
2.22638e-06
0.506286
2.23482e-06
0.506286
2.17779e-06
0.506286
2.07208e-06
0.506287
2.00268e-06
0.506288
2.0075e-06
0.506288
2.01338e-06
0.506289
1.97875e-06
0.50629
1.96353e-06
0.50629
2.00257e-06
0.506291
2.00726e-06
2.08088e-06
0.506232
5.92013e-07
0.506232
1.35285e-06
0.506233
1.77482e-06
0.506232
1.92867e-06
0.506233
1.15592e-06
0.506234
8.03519e-07
0.506235
1.27598e-06
0.506235
1.65709e-06
0.506236
2.00838e-06
0.506236
2.50074e-06
0.506235
2.6623e-06
0.506236
2.19186e-06
0.506236
2.41197e-06
0.506234
2.96237e-06
0.506232
2.42085e-06
0.506232
1.73025e-06
0.506232
2.05124e-06
0.506232
2.064e-06
0.506234
1.5083e-06
0.506236
1.24458e-06
0.506237
1.70625e-06
0.506238
2.27569e-06
0.506238
2.27888e-06
0.506238
1.71748e-06
0.506239
1.40895e-06
0.506239
1.64943e-06
0.506239
1.9191e-06
0.506239
1.77549e-06
0.50624
1.48644e-06
0.506241
1.34909e-06
0.506242
1.61118e-06
0.506242
2.03842e-06
0.506242
2.33778e-06
0.506242
2.3792e-06
0.506242
2.22539e-06
0.506242
2.0298e-06
0.506242
1.92947e-06
0.506242
2.00409e-06
0.506241
2.26097e-06
0.506241
2.51755e-06
0.50624
2.58264e-06
0.50624
2.42753e-06
0.506239
2.23775e-06
0.506239
2.13409e-06
0.50624
1.94151e-06
0.50624
1.67513e-06
0.506242
1.68064e-06
0.506242
1.97779e-06
0.506243
2.21831e-06
0.506243
2.07975e-06
0.506244
1.5664e-06
0.506246
1.16367e-06
0.506247
1.24754e-06
0.506247
1.62506e-06
0.506247
1.94765e-06
0.506248
2.11555e-06
0.506249
2.16546e-06
0.506249
2.03265e-06
0.50625
1.67537e-06
0.50625
1.33818e-06
0.506251
1.38814e-06
0.506251
1.87419e-06
0.506251
2.47652e-06
0.506251
2.85584e-06
0.506251
2.87797e-06
0.50625
2.60571e-06
0.506251
2.22725e-06
0.506251
1.93826e-06
0.506251
1.86228e-06
0.50625
2.058e-06
0.50625
2.42191e-06
0.50625
2.63017e-06
0.50625
2.47537e-06
0.50625
2.18621e-06
0.50625
2.07776e-06
0.50625
2.129e-06
0.50625
2.18679e-06
0.50625
2.17957e-06
0.50625
2.01973e-06
0.50625
1.7589e-06
0.50625
1.71409e-06
0.50625
2.04401e-06
0.50625
2.42714e-06
0.50625
2.47062e-06
0.506249
2.18972e-06
0.506249
1.90607e-06
0.50625
1.88174e-06
0.50625
2.13563e-06
0.506249
2.43848e-06
0.506249
2.50827e-06
0.506249
2.31126e-06
0.506248
2.10096e-06
0.506248
2.09904e-06
0.506248
2.26668e-06
0.506248
2.46982e-06
0.506247
2.68221e-06
0.506247
2.87497e-06
0.506247
2.85894e-06
0.506247
2.46779e-06
0.506246
1.85615e-06
0.506246
1.41603e-06
0.506247
1.40695e-06
0.506247
1.75208e-06
0.506247
2.11352e-06
0.506247
2.1682e-06
0.506247
1.92223e-06
0.506248
1.7024e-06
0.506249
1.76327e-06
0.506249
2.00847e-06
0.50625
2.16868e-06
0.50625
2.12296e-06
0.506251
1.94863e-06
0.506251
1.77735e-06
0.506252
1.68331e-06
0.506253
1.65541e-06
0.506254
1.64716e-06
0.506254
1.67019e-06
0.506255
1.76883e-06
0.506255
1.88006e-06
0.506255
1.8719e-06
0.506256
1.77313e-06
0.506256
1.76479e-06
0.506257
1.89283e-06
0.506257
2.0345e-06
0.506257
2.14858e-06
0.506258
2.27391e-06
0.506258
2.30485e-06
0.506258
2.09711e-06
0.506258
1.74046e-06
0.506258
1.44881e-06
0.506258
1.32893e-06
0.506258
1.45096e-06
0.506258
1.82634e-06
0.506259
2.22348e-06
0.506259
2.34478e-06
0.506259
2.20272e-06
0.50626
2.0219e-06
0.506261
1.86322e-06
0.506262
1.66543e-06
0.506263
1.47049e-06
0.506264
1.32467e-06
0.506265
1.20966e-06
0.506266
1.23205e-06
0.506268
1.52308e-06
0.506269
1.89891e-06
0.506269
2.05791e-06
0.50627
2.03038e-06
0.506271
2.03756e-06
0.506271
2.06995e-06
0.506272
2.00672e-06
0.506272
1.94813e-06
0.506273
2.06178e-06
0.506273
2.28358e-06
0.506272
2.41993e-06
0.506272
2.38108e-06
0.506271
2.20889e-06
0.506271
2.04691e-06
0.506271
2.05243e-06
0.50627
2.1905e-06
0.50627
2.22936e-06
0.506269
2.07395e-06
0.506269
1.9207e-06
0.506269
1.9686e-06
0.506269
2.1616e-06
0.506269
2.32357e-06
0.506268
2.35917e-06
0.506268
2.26303e-06
0.506267
2.11219e-06
0.506267
2.07991e-06
0.506267
2.25946e-06
0.506267
2.47744e-06
0.506267
2.49833e-06
0.506267
2.37157e-06
0.506267
2.31075e-06
0.506267
2.32876e-06
0.506267
2.27327e-06
0.506267
2.11089e-06
0.506267
1.93438e-06
0.506267
1.80775e-06
0.506267
1.76698e-06
0.506267
1.83902e-06
0.506268
1.98139e-06
0.506268
2.12542e-06
0.506268
2.24666e-06
0.506268
2.29321e-06
0.506269
2.18521e-06
0.506269
1.98949e-06
0.50627
1.89004e-06
0.50627
1.89121e-06
0.506271
1.78434e-06
0.506271
1.51523e-06
0.506272
1.30391e-06
0.506273
1.33111e-06
0.506274
1.53036e-06
0.506275
1.75789e-06
0.506275
1.95509e-06
0.506276
2.08792e-06
0.506276
2.11954e-06
0.506277
2.0805e-06
0.506278
2.04489e-06
0.506279
2.02645e-06
0.506279
1.98439e-06
0.50628
1.90447e-06
0.506281
1.80311e-06
0.506281
1.69821e-06
0.506282
1.63625e-06
0.506283
1.6794e-06
0.506283
1.80624e-06
0.506284
1.90607e-06
0.506284
1.92498e-06
0.506285
1.92083e-06
0.506286
1.94679e-06
0.506286
2.00916e-06
0.506287
2.12133e-06
0.506288
2.24257e-06
0.506288
2.23849e-06
0.506288
2.06214e-06
0.506289
1.86394e-06
0.506289
1.7872e-06
0.50629
1.80376e-06
0.50629
1.83892e-06
0.50629
1.87591e-06
0.506291
1.89886e-06
0.506291
1.9098e-06
0.506291
1.96819e-06
0.506291
2.06191e-06
0.506291
2.06627e-06
0.506291
1.96129e-06
0.506291
1.90612e-06
0.506291
1.98802e-06
0.506291
2.10165e-06
0.506291
2.15801e-06
0.506291
2.1944e-06
0.506291
2.23136e-06
0.506291
2.22643e-06
0.50629
2.1839e-06
0.50629
2.15503e-06
0.50629
2.15591e-06
0.50629
2.18483e-06
0.50629
2.25369e-06
0.50629
2.33073e-06
0.50629
2.34571e-06
0.50629
2.30107e-06
0.506289
2.26846e-06
0.506289
2.25088e-06
0.506289
2.18607e-06
0.506289
2.10394e-06
0.506289
2.08976e-06
0.506289
2.18176e-06
2.17734e-06
0.50623
1.65064e-08
0.506231
5.74485e-07
0.506232
1.18309e-06
0.506231
2.16696e-06
0.50623
2.55411e-06
0.506229
2.01975e-06
0.506229
1.33148e-06
0.506229
8.92363e-07
0.506231
8.20137e-07
0.506232
8.71327e-07
0.506234
1.41419e-06
0.506234
1.72925e-06
0.506235
1.58775e-06
0.506236
1.70108e-06
0.506237
1.92585e-06
0.506237
1.56584e-06
0.506238
1.21706e-06
0.506238
1.25386e-06
0.506239
1.22155e-06
0.506238
1.5022e-06
0.506238
1.97339e-06
0.506239
1.8393e-06
0.506239
1.49664e-06
0.506239
1.88167e-06
0.506238
2.54312e-06
0.506237
2.76687e-06
0.506236
2.65778e-06
0.506236
2.26008e-06
0.506235
1.82077e-06
0.506235
1.75366e-06
0.506235
1.78555e-06
0.506235
1.65168e-06
0.506236
1.49319e-06
0.506237
1.50389e-06
0.506237
1.71064e-06
0.506238
1.92765e-06
0.506238
1.9384e-06
0.506238
1.77312e-06
0.506238
1.65809e-06
0.506239
1.67227e-06
0.50624
1.76169e-06
0.506241
1.84363e-06
0.506241
1.85836e-06
0.506241
1.82298e-06
0.506242
1.66618e-06
0.506242
1.42653e-06
0.506242
1.45018e-06
0.506242
1.82629e-06
0.506242
2.21777e-06
0.506242
2.28101e-06
0.506242
1.95171e-06
0.506241
1.63862e-06
0.506241
1.83672e-06
0.50624
2.4411e-06
0.506239
2.87874e-06
0.506238
2.81351e-06
0.506238
2.42211e-06
0.506238
2.01419e-06
0.506238
1.66536e-06
0.506238
1.37418e-06
0.506238
1.31487e-06
0.506238
1.62608e-06
0.506239
2.10292e-06
0.506239
2.33152e-06
0.50624
2.08013e-06
0.506241
1.49699e-06
0.506242
9.82541e-07
0.506243
8.20794e-07
0.506244
9.27066e-07
0.506245
1.06741e-06
0.506247
1.19249e-06
0.506248
1.3508e-06
0.506249
1.49498e-06
0.506249
1.62931e-06
0.50625
1.82928e-06
0.50625
1.98816e-06
0.50625
1.96243e-06
0.50625
1.86888e-06
0.50625
1.85357e-06
0.50625
1.84833e-06
0.50625
1.82266e-06
0.50625
1.88769e-06
0.506251
2.01534e-06
0.506251
2.00455e-06
0.506252
1.77848e-06
0.506252
1.48043e-06
0.506253
1.29473e-06
0.506254
1.30962e-06
0.506254
1.45723e-06
0.506255
1.53448e-06
0.506256
1.41769e-06
0.506257
1.26854e-06
0.506258
1.37364e-06
0.506258
1.76241e-06
0.506259
2.14839e-06
0.506259
2.28431e-06
0.50626
2.20707e-06
0.506261
2.07003e-06
0.506261
1.90562e-06
0.506261
1.68054e-06
0.506261
1.44715e-06
0.506261
1.3274e-06
0.506262
1.41863e-06
0.506262
1.69077e-06
0.506262
1.92935e-06
0.506262
1.91947e-06
0.506262
1.72075e-06
0.506263
1.61476e-06
0.506263
1.7566e-06
0.506263
2.00855e-06
0.506263
2.14017e-06
0.506263
2.06545e-06
0.506263
1.87966e-06
0.506263
1.75173e-06
0.506263
1.77347e-06
0.506262
1.87167e-06
0.506262
1.92789e-06
0.506262
1.9529e-06
0.506262
2.02275e-06
0.506261
2.09615e-06
0.506261
2.09315e-06
0.506261
2.0877e-06
0.506261
2.18291e-06
0.50626
2.29117e-06
0.50626
2.2757e-06
0.50626
2.17439e-06
0.50626
2.06409e-06
0.506261
1.90322e-06
0.506261
1.69641e-06
0.506261
1.55927e-06
0.50626
1.52019e-06
0.50626
1.55776e-06
0.50626
1.75201e-06
0.506261
2.10585e-06
0.50626
2.36696e-06
0.50626
2.32233e-06
0.50626
2.07694e-06
0.50626
1.81983e-06
0.50626
1.61001e-06
0.50626
1.50428e-06
0.50626
1.53551e-06
0.50626
1.56078e-06
0.50626
1.48307e-06
0.50626
1.47787e-06
0.50626
1.67658e-06
0.50626
1.89032e-06
0.50626
1.94025e-06
0.50626
1.94597e-06
0.50626
2.02242e-06
0.50626
2.04376e-06
0.50626
1.91678e-06
0.506261
1.76422e-06
0.506261
1.71343e-06
0.506262
1.75029e-06
0.506262
1.79802e-06
0.506263
1.76541e-06
0.506263
1.6094e-06
0.506264
1.45583e-06
0.506265
1.48762e-06
0.506265
1.65999e-06
0.506265
1.7324e-06
0.506266
1.60799e-06
0.506266
1.42914e-06
0.506267
1.34507e-06
0.506268
1.38004e-06
0.506269
1.50093e-06
0.50627
1.63666e-06
0.50627
1.67563e-06
0.50627
1.61982e-06
0.506271
1.63859e-06
0.506272
1.80225e-06
0.506272
1.91873e-06
0.506273
1.82221e-06
0.506274
1.6234e-06
0.506274
1.50002e-06
0.506275
1.45336e-06
0.506276
1.41752e-06
0.506276
1.39947e-06
0.506277
1.41661e-06
0.506277
1.46987e-06
0.506277
1.5829e-06
0.506278
1.74548e-06
0.506278
1.89787e-06
0.506278
2.03477e-06
0.506278
2.17322e-06
0.506278
2.21109e-06
0.506278
2.0416e-06
0.506278
1.78684e-06
0.506278
1.6693e-06
0.506279
1.68202e-06
0.506278
1.6464e-06
0.506278
1.52987e-06
0.506278
1.47305e-06
0.506278
1.55126e-06
0.506278
1.71933e-06
0.506278
1.93281e-06
0.506278
2.15467e-06
0.506278
2.29895e-06
0.506278
2.30239e-06
0.506277
2.20292e-06
0.506277
2.07439e-06
0.506277
1.94554e-06
0.506277
1.825e-06
0.506278
1.72837e-06
0.506278
1.64661e-06
0.506278
1.56529e-06
0.506278
1.53101e-06
0.506278
1.60587e-06
0.506278
1.7531e-06
0.506278
1.87302e-06
0.506278
1.92824e-06
0.506278
1.92671e-06
0.506278
1.86089e-06
0.506279
1.77624e-06
0.506279
1.77189e-06
0.50628
1.83609e-06
0.50628
1.83783e-06
0.50628
1.73903e-06
0.50628
1.63328e-06
0.50628
1.57374e-06
0.506281
1.54205e-06
0.506281
1.53686e-06
0.506281
1.54383e-06
0.506282
1.52317e-06
0.506282
1.52009e-06
0.506283
1.62156e-06
0.506283
1.76534e-06
0.506283
1.79547e-06
0.506283
1.71349e-06
0.506284
1.65734e-06
0.506284
1.66282e-06
0.506285
1.66362e-06
0.506285
1.65942e-06
0.506286
1.69273e-06
0.506286
1.74221e-06
0.506287
1.77023e-06
0.506287
1.78125e-06
0.506287
1.77287e-06
0.506288
1.73182e-06
0.506288
1.69241e-06
0.506289
1.70113e-06
0.50629
1.72371e-06
0.50629
1.69725e-06
0.506291
1.65684e-06
0.506291
1.66825e-06
0.506292
1.69062e-06
0.506292
1.65367e-06
0.506293
1.57857e-06
0.506293
1.51684e-06
1.60848e-06
0.506229
8.50492e-07
0.506229
9.35202e-07
0.50623
1.74168e-07
0.506232
1.66773e-07
0.506234
1.10798e-06
0.506233
2.33468e-06
0.506232
2.40394e-06
0.506231
2.01374e-06
0.50623
2.00156e-06
0.506229
1.92393e-06
0.506229
1.57388e-06
0.506229
1.05179e-06
0.50623
9.246e-07
0.50623
1.39549e-06
0.50623
1.89537e-06
0.50623
1.69981e-06
0.50623
1.2407e-06
0.50623
1.71778e-06
0.506228
2.50125e-06
0.506228
2.23688e-06
0.506228
1.43509e-06
0.506229
1.3442e-06
0.506228
1.7418e-06
0.506229
1.72778e-06
0.50623
1.43382e-06
0.506231
9.63394e-07
0.506233
7.56628e-07
0.506235
9.91981e-07
0.506235
1.28522e-06
0.506235
1.49959e-06
0.506236
1.47436e-06
0.506236
1.21498e-06
0.506237
1.02345e-06
0.506237
1.04316e-06
0.506238
1.17842e-06
0.506238
1.39735e-06
0.506238
1.64418e-06
0.506239
1.72705e-06
0.506239
1.63948e-06
0.506239
1.54583e-06
0.506239
1.55112e-06
0.506239
1.56132e-06
0.50624
1.4262e-06
0.50624
1.27048e-06
0.506241
1.30808e-06
0.50624
1.48531e-06
0.50624
1.68954e-06
0.50624
1.78063e-06
0.506241
1.65715e-06
0.506242
1.44404e-06
0.506242
1.24007e-06
0.506243
1.08309e-06
0.506244
1.14936e-06
0.506245
1.5271e-06
0.506245
1.9557e-06
0.506246
2.04669e-06
0.506247
1.71726e-06
0.506248
1.27086e-06
0.506248
1.03939e-06
0.506249
1.10467e-06
0.506248
1.40524e-06
0.506248
1.84457e-06
0.506248
2.23797e-06
0.506248
2.36798e-06
0.506248
2.17768e-06
0.506248
1.82992e-06
0.506247
1.60053e-06
0.506246
1.65848e-06
0.506245
1.85773e-06
0.506244
1.88333e-06
0.506244
1.69655e-06
0.506244
1.57677e-06
0.506244
1.65888e-06
0.506243
1.79819e-06
0.506243
1.85471e-06
0.506244
1.73054e-06
0.506244
1.37807e-06
0.506245
1.02993e-06
0.506246
1.03989e-06
0.506246
1.36776e-06
0.506246
1.64991e-06
0.506247
1.69202e-06
0.506247
1.58313e-06
0.506248
1.47268e-06
0.506248
1.4593e-06
0.506248
1.56562e-06
0.506247
1.6985e-06
0.506247
1.7473e-06
0.506247
1.7166e-06
0.506247
1.66071e-06
0.506247
1.57583e-06
0.506246
1.49006e-06
0.506246
1.55994e-06
0.506246
1.88727e-06
0.506246
2.28193e-06
0.506246
2.39411e-06
0.506246
2.10195e-06
0.506246
1.63824e-06
0.506247
1.31115e-06
0.506247
1.233e-06
0.506247
1.31053e-06
0.506247
1.36562e-06
0.506248
1.31393e-06
0.506248
1.26725e-06
0.506249
1.35464e-06
0.506249
1.50873e-06
0.506249
1.56847e-06
0.506249
1.51999e-06
0.506249
1.49051e-06
0.50625
1.54208e-06
0.50625
1.6031e-06
0.506251
1.57194e-06
0.506251
1.41887e-06
0.506252
1.22844e-06
0.506253
1.14847e-06
0.506253
1.21566e-06
0.506254
1.29158e-06
0.506255
1.25873e-06
0.506255
1.18748e-06
0.506256
1.18286e-06
0.506257
1.21735e-06
0.506258
1.2614e-06
0.506259
1.38146e-06
0.50626
1.55253e-06
0.50626
1.5995e-06
0.506261
1.44785e-06
0.506262
1.20787e-06
0.506263
9.65869e-07
0.506264
7.67332e-07
0.506264
7.47226e-07
0.506265
9.52569e-07
0.506265
1.22644e-06
0.506266
1.45658e-06
0.506266
1.70771e-06
0.506266
1.95188e-06
0.506267
2.00502e-06
0.506267
1.83223e-06
0.506267
1.58079e-06
0.506268
1.34444e-06
0.506268
1.19904e-06
0.506268
1.28204e-06
0.506268
1.54678e-06
0.506268
1.72342e-06
0.506268
1.71911e-06
0.506268
1.72198e-06
0.506268
1.79758e-06
0.506268
1.78309e-06
0.506268
1.65793e-06
0.506269
1.60091e-06
0.506269
1.65373e-06
0.506269
1.68049e-06
0.506269
1.62204e-06
0.506269