/*--------------------------------*- C++ -*----------------------------------*\
| =========                 |                                                 |
| \\      /  F ield         | OpenFOAM: The Open Source CFD Toolbox           |
|  \\    /   O peration     | Version:  2406                                  |
|   \\  /    A nd           | Website:  www.openfoam.com                      |
|    \\/     M anipulation  |                                                 |
\*---------------------------------------------------------------------------*/
FoamFile
{
    version     2.0;
    format      ascii;
    arch        "LSB;label=32;scalar=64";
    class       volVectorField;
    location    "0.95";
    object      U;
}
// * * * * * * * * * * * * * * * * * * * * * * * * * * * * * * * * * * * * * //

dimensions      [0 1 -1 0 0 0 0];

internalField   nonuniform List<vector> 
6250
(
(49.7881 0.000137285 0)
(84.4728 0.000561827 0)
(72.6389 0.000862887 0)
(60.1323 0.000861471 0)
(59.332 0.000765917 0)
(62.7304 0.000738402 0)
(64.2343 0.000710443 0)
(63.7989 0.000740312 0)
(63.1893 0.000812045 0)
(63.0849 0.000871683 0)
(63.2245 0.000889819 0)
(63.3081 0.000899875 0)
(63.2982 0.00091098 0)
(63.269 0.000835506 0)
(63.2602 0.000675655 0)
(63.265 0.000533961 0)
(63.2689 0.000507993 0)
(63.2685 0.000587486 0)
(63.2668 0.000736198 0)
(63.2656 0.000912716 0)
(63.265 0.0010196 0)
(63.2645 0.00103269 0)
(63.2637 0.000997269 0)
(63.263 0.000934584 0)
(63.2623 0.000871099 0)
(63.2618 0.0008437 0)
(63.2611 0.000838063 0)
(63.2604 0.000812575 0)
(63.2599 0.00079783 0)
(63.2593 0.000835197 0)
(63.2585 0.000886621 0)
(63.2579 0.000910245 0)
(63.2573 0.000922025 0)
(63.2566 0.000952133 0)
(63.2559 0.000996456 0)
(63.255 0.000998537 0)
(63.2542 0.000923946 0)
(63.2536 0.000818457 0)
(63.253 0.000749923 0)
(63.2524 0.000743706 0)
(63.2518 0.000777914 0)
(63.2511 0.000818143 0)
(63.2503 0.000849885 0)
(63.2496 0.000878944 0)
(63.2489 0.000922937 0)
(63.2482 0.000985536 0)
(63.2475 0.00104842 0)
(63.2468 0.00110235 0)
(63.246 0.00113869 0)
(63.2453 0.0011294 0)
(63.2446 0.00106214 0)
(63.2439 0.00096871 0)
(63.2432 0.000908962 0)
(63.2426 0.000921756 0)
(63.2419 0.000983326 0)
(63.2411 0.0010358 0)
(63.2404 0.001053 0)
(63.2396 0.00105238 0)
(63.2389 0.00104815 0)
(63.2382 0.00102422 0)
(63.2375 0.000971325 0)
(63.2369 0.000924462 0)
(63.2363 0.000927251 0)
(63.2356 0.000970844 0)
(63.2348 0.00100032 0)
(63.234 0.000977368 0)
(63.2333 0.000915167 0)
(63.2326 0.000852917 0)
(63.2319 0.000814427 0)
(63.2313 0.000799431 0)
(63.2306 0.000807829 0)
(63.23 0.000850085 0)
(63.2293 0.000917521 0)
(63.2285 0.000964998 0)
(63.2277 0.000955946 0)
(63.227 0.000910817 0)
(63.2264 0.0008799 0)
(63.2257 0.000889054 0)
(63.225 0.000926944 0)
(63.2243 0.000956406 0)
(63.2236 0.000938718 0)
(63.223 0.000880705 0)
(63.2224 0.00083657 0)
(63.2217 0.000839197 0)
(63.221 0.000859001 0)
(63.2203 0.000854353 0)
(63.2196 0.000829108 0)
(63.219 0.000816446 0)
(63.2184 0.000830476 0)
(63.2177 0.000850555 0)
(63.2171 0.000842097 0)
(63.2164 0.000792002 0)
(63.2158 0.00072994 0)
(63.2152 0.000705176 0)
(63.2146 0.000734379 0)
(63.2139 0.000786995 0)
(63.2132 0.000827878 0)
(63.2124 0.000853154 0)
(63.2117 0.000870621 0)
(63.2109 0.000868117 0)
(63.2102 0.000830592 0)
(63.2097 0.000779348 0)
(63.2091 0.000763416 0)
(63.2086 0.000808128 0)
(63.208 0.000885599 0)
(63.2073 0.000940746 0)
(63.2066 0.000948266 0)
(63.2059 0.000939205 0)
(63.2053 0.000960311 0)
(63.2047 0.00101174 0)
(63.204 0.00104283 0)
(63.2033 0.00101431 0)
(63.2027 0.000948567 0)
(63.2022 0.000905439 0)
(63.2016 0.00091792 0)
(63.201 0.000961733 0)
(63.2004 0.000987672 0)
(63.1998 0.000975208 0)
(63.1992 0.000947426 0)
(63.1986 0.000934573 0)
(63.1979 0.000938669 0)
(63.1973 0.000946811 0)
(63.1966 0.000962065 0)
(63.196 0.000992845 0)
(63.1952 0.00102185 0)
(63.1945 0.00101906 0)
(63.1938 0.000983585 0)
(63.1932 0.000944149 0)
(63.1925 0.000922547 0)
(63.1918 0.00092263 0)
(63.1911 0.000945725 0)
(63.1904 0.000991557 0)
(63.1897 0.00105246 0)
(63.1889 0.00111873 0)
(63.1881 0.00117412 0)
(63.1873 0.00118996 0)
(63.1866 0.00115741 0)
(63.1859 0.00112014 0)
(63.1852 0.00113819 0)
(63.1844 0.00122112 0)
(63.1836 0.00132307 0)
(63.1827 0.00139119 0)
(63.1819 0.00139871 0)
(63.1811 0.0013573 0)
(63.1804 0.0013049 0)
(63.1796 0.00126265 0)
(63.1789 0.00121072 0)
(63.1781 0.00113087 0)
(63.1774 0.00105258 0)
(63.1767 0.00101812 0)
(63.176 0.00102211 0)
(63.1752 0.00102408 0)
(63.1745 0.00100299 0)
(63.1738 0.000967325 0)
(63.1731 0.000925964 0)
(63.1724 0.000877419 0)
(63.1717 0.000823157 0)
(63.1711 0.000777668 0)
(63.1705 0.000762257 0)
(63.1698 0.000782595 0)
(63.1691 0.000812259 0)
(63.1684 0.000815989 0)
(63.1677 0.000793869 0)
(63.1671 0.000781563 0)
(63.1665 0.000800514 0)
(63.1658 0.000828503 0)
(63.1651 0.000828524 0)
(63.1644 0.000791261 0)
(63.1638 0.000743029 0)
(63.1632 0.000722999 0)
(63.1626 0.00075181 0)
(63.162 0.000807446 0)
(63.1614 0.000838909 0)
(63.1607 0.000820632 0)
(63.1601 0.000782986 0)
(63.1596 0.000770226 0)
(63.159 0.000785462 0)
(63.1584 0.000799781 0)
(63.1578 0.000799448 0)
(63.1572 0.000797115 0)
(63.1567 0.000806859 0)
(63.1561 0.000829343 0)
(63.1555 0.000856197 0)
(63.1549 0.000877529 0)
(63.1542 0.000887787 0)
(63.1536 0.000885414 0)
(63.1531 0.000868746 0)
(63.1525 0.000842953 0)
(63.152 0.000830042 0)
(63.1515 0.00085085 0)
(63.1509 0.000892932 0)
(63.1503 0.000920319 0)
(63.1498 0.000920829 0)
(63.1492 0.000920425 0)
(63.1487 0.000942966 0)
(63.1481 0.000976372 0)
(63.1474 0.000988327 0)
(63.1468 0.000960312 0)
(63.1463 0.000902352 0)
(63.1457 0.000845294 0)
(63.1452 0.00082121 0)
(63.1447 0.000840355 0)
(63.1441 0.000882913 0)
(63.1435 0.000919911 0)
(63.1429 0.000939437 0)
(63.1423 0.000948139 0)
(63.1416 0.000953852 0)
(63.141 0.000956557 0)
(63.1404 0.000953829 0)
(63.1398 0.000946667 0)
(63.1391 0.000940102 0)
(63.1384 0.00094133 0)
(63.1378 0.000953866 0)
(63.1372 0.000971575 0)
(63.1365 0.000983216 0)
(63.1358 0.000980558 0)
(63.1352 0.00095792 0)
(63.1345 0.000915627 0)
(63.1339 0.000872369 0)
(63.1333 0.000858056 0)
(63.1327 0.000881507 0)
(63.1321 0.000917989 0)
(63.1314 0.00093606 0)
(63.1308 0.000925063 0)
(63.1301 0.000896171 0)
(63.1295 0.000869353 0)
(63.1289 0.000857052 0)
(63.1282 0.000851245 0)
(63.1276 0.000835176 0)
(63.127 0.000812251 0)
(63.1264 0.00080504 0)
(63.1258 0.000819857 0)
(63.1252 0.000833203 0)
(63.1246 0.000821154 0)
(63.124 0.00078392 0)
(63.1234 0.000736227 0)
(63.1229 0.000690802 0)
(63.1224 0.000656311 0)
(63.1218 0.000638355 0)
(63.1213 0.000635928 0)
(63.1208 0.000640003 0)
(63.1203 0.000636921 0)
(63.1198 0.000614911 0)
(63.1193 0.000573722 0)
(63.1188 0.000529976 0)
(63.1184 0.000503671 0)
(63.1179 0.000499903 0)
(63.1175 0.000501713 0)
(63.1171 0.000516303 0)
(63.1164 0.00048146 0)
(49.788 8.84047e-05 0)
(84.4741 0.000293406 0)
(72.6421 0.000495009 0)
(60.1374 0.000559575 0)
(59.3377 0.000574228 0)
(62.7372 0.00064678 0)
(64.2417 0.000623073 0)
(63.8072 0.000581771 0)
(63.199 0.000544941 0)
(63.0957 0.000507789 0)
(63.2364 0.00048394 0)
(63.3211 0.000468517 0)
(63.3126 0.000505059 0)
(63.2846 0.000572819 0)
(63.2766 0.000648767 0)
(63.2818 0.000637869 0)
(63.2863 0.000527121 0)
(63.2864 0.000409102 0)
(63.2855 0.000336257 0)
(63.2854 0.000342139 0)
(63.2862 0.000379129 0)
(63.287 0.000403886 0)
(63.2875 0.000428614 0)
(63.2879 0.000427826 0)
(63.288 0.000415392 0)
(63.2884 0.000431934 0)
(63.2887 0.000452098 0)
(63.2889 0.000421589 0)
(63.2891 0.000383097 0)
(63.2895 0.000401955 0)
(63.2899 0.000435914 0)
(63.2902 0.000415093 0)
(63.2906 0.000363935 0)
(63.291 0.000358793 0)
(63.2916 0.000439712 0)
(63.2921 0.000549175 0)
(63.2925 0.000594578 0)
(63.2928 0.00057079 0)
(63.293 0.00053665 0)
(63.2932 0.000530352 0)
(63.2935 0.000544848 0)
(63.2939 0.000553638 0)
(63.2944 0.000541046 0)
(63.2948 0.000502647 0)
(63.2952 0.000455241 0)
(63.2956 0.000417687 0)
(63.296 0.000374887 0)
(63.2964 0.000328103 0)
(63.2969 0.000316463 0)
(63.2974 0.000352349 0)
(63.2978 0.00040081 0)
(63.2981 0.000414023 0)
(63.2983 0.000384068 0)
(63.2987 0.000365176 0)
(63.2991 0.000400834 0)
(63.2996 0.000460361 0)
(63.2999 0.000482691 0)
(63.3002 0.000451495 0)
(63.3006 0.000402286 0)
(63.301 0.000365066 0)
(63.3014 0.000338153 0)
(63.3017 0.000326659 0)
(63.3021 0.00035807 0)
(63.3026 0.000439783 0)
(63.303 0.000533102 0)
(63.3034 0.000586988 0)
(63.3038 0.00058173 0)
(63.3041 0.000536236 0)
(63.3045 0.000486135 0)
(63.3049 0.000457153 0)
(63.3053 0.000457479 0)
(63.3057 0.000488669 0)
(63.3061 0.000539966 0)
(63.3066 0.000572214 0)
(63.307 0.000548994 0)
(63.3073 0.000489438 0)
(63.3077 0.000444372 0)
(63.308 0.000432988 0)
(63.3084 0.000444084 0)
(63.3088 0.000461726 0)
(63.3091 0.000461947 0)
(63.3094 0.00043562 0)
(63.3097 0.000419512 0)
(63.3101 0.00045304 0)
(63.3105 0.000512607 0)
(63.3109 0.000536448 0)
(63.3112 0.000503043 0)
(63.3115 0.00044878 0)
(63.3119 0.000422465 0)
(63.3123 0.00044351 0)
(63.3126 0.000488768 0)
(63.313 0.000514707 0)
(63.3133 0.000505996 0)
(63.3136 0.000495338 0)
(63.3139 0.000520348 0)
(63.3143 0.000572336 0)
(63.3146 0.000611016 0)
(63.3149 0.000618037 0)
(63.3153 0.000605762 0)
(63.3157 0.000578353 0)
(63.316 0.000520108 0)
(63.3163 0.000432231 0)
(63.3165 0.000352072 0)
(63.3167 0.000321882 0)
(63.3171 0.000348745 0)
(63.3175 0.000393884 0)
(63.3178 0.000403586 0)
(63.3181 0.000361732 0)
(63.3185 0.000306181 0)
(63.3189 0.000283437 0)
(63.3193 0.00029618 0)
(63.3196 0.000308197 0)
(63.3199 0.000291903 0)
(63.3201 0.00025553 0)
(63.3204 0.000227545 0)
(63.3208 0.000224945 0)
(63.3211 0.000238033 0)
(63.3215 0.000246503 0)
(63.3218 0.000248354 0)
(63.3221 0.000261438 0)
(63.3224 0.000292336 0)
(63.3227 0.000323897 0)
(63.323 0.000345077 0)
(63.3234 0.000366495 0)
(63.3238 0.000391555 0)
(63.3242 0.000403792 0)
(63.3245 0.000399081 0)
(63.3249 0.000397052 0)
(63.3252 0.000406213 0)
(63.3256 0.000412094 0)
(63.326 0.000407376 0)
(63.3264 0.000399313 0)
(63.3269 0.000391274 0)
(63.3274 0.000387838 0)
(63.3279 0.000397469 0)
(63.3284 0.000405501 0)
(63.3288 0.00037866 0)
(63.3291 0.000318619 0)
(63.3295 0.000268349 0)
(63.33 0.000255359 0)
(63.3306 0.000267194 0)
(63.3312 0.000280114 0)
(63.3318 0.0002759 0)
(63.3323 0.000247657 0)
(63.3327 0.000220181 0)
(63.3332 0.00023461 0)
(63.3337 0.000290439 0)
(63.3341 0.000343476 0)
(63.3345 0.000373199 0)
(63.3349 0.000400324 0)
(63.3353 0.000432986 0)
(63.3357 0.000451618 0)
(63.336 0.000452639 0)
(63.3365 0.000458931 0)
(63.3369 0.000483302 0)
(63.3373 0.000513646 0)
(63.3376 0.000531337 0)
(63.3379 0.000529122 0)
(63.3382 0.000520542 0)
(63.3385 0.000531196 0)
(63.3389 0.00056406 0)
(63.3392 0.000584575 0)
(63.3395 0.000563051 0)
(63.3398 0.000517229 0)
(63.3401 0.000489631 0)
(63.3405 0.000496541 0)
(63.3409 0.000519609 0)
(63.3413 0.000532415 0)
(63.3415 0.000518897 0)
(63.3418 0.00048232 0)
(63.342 0.000449841 0)
(63.3424 0.000446812 0)
(63.3427 0.000458634 0)
(63.343 0.000446233 0)
(63.3432 0.000404942 0)
(63.3435 0.000371768 0)
(63.3438 0.000369957 0)
(63.3441 0.000382993 0)
(63.3444 0.000387842 0)
(63.3447 0.000380337 0)
(63.3449 0.000366165 0)
(63.3452 0.00035192 0)
(63.3455 0.000343132 0)
(63.3458 0.000337585 0)
(63.3461 0.000328362 0)
(63.3464 0.000313948 0)
(63.3466 0.000292665 0)
(63.3468 0.000258169 0)
(63.347 0.000218923 0)
(63.3473 0.000203007 0)
(63.3476 0.000219442 0)
(63.3479 0.000236538 0)
(63.3482 0.000223994 0)
(63.3484 0.000195261 0)
(63.3487 0.000184426 0)
(63.3491 0.000200709 0)
(63.3494 0.000227225 0)
(63.3497 0.000246982 0)
(63.3499 0.000252395 0)
(63.3501 0.000243631 0)
(63.3502 0.000231167 0)
(63.3504 0.000230679 0)
(63.3507 0.000246588 0)
(63.351 0.000268174 0)
(63.3513 0.000283748 0)
(63.3517 0.000290291 0)
(63.352 0.000290741 0)
(63.3523 0.000291678 0)
(63.3526 0.00030152 0)
(63.353 0.000320759 0)
(63.3533 0.000337217 0)
(63.3536 0.000339896 0)
(63.3539 0.000331454 0)
(63.3542 0.000321026 0)
(63.3545 0.000316684 0)
(63.3549 0.000327019 0)
(63.3553 0.000351292 0)
(63.3556 0.000369452 0)
(63.3559 0.000364168 0)
(63.3561 0.000347158 0)
(63.3564 0.000342431 0)
(63.3568 0.000354571 0)
(63.3572 0.000372191 0)
(63.3576 0.000386871 0)
(63.3579 0.000395012 0)
(63.3582 0.000398445 0)
(63.3586 0.000407619 0)
(63.3589 0.000425069 0)
(63.3592 0.000432229 0)
(63.3594 0.000415379 0)
(63.3597 0.000391439 0)
(63.36 0.000384569 0)
(63.3604 0.000393226 0)
(63.3607 0.000401424 0)
(63.3609 0.000404385 0)
(63.3612 0.000404917 0)
(63.3614 0.000401658 0)
(63.3616 0.000394561 0)
(63.3618 0.000388862 0)
(63.3619 0.000387756 0)
(63.3621 0.00039111 0)
(63.3624 0.000399959 0)
(63.3626 0.000412511 0)
(63.3627 0.000420744 0)
(63.3629 0.000420974 0)
(63.363 0.000418021 0)
(63.3631 0.000415067 0)
(63.3632 0.000399986 0)
(63.3633 0.000393773 0)
(63.3635 0.000358349 0)
(49.7883 -2.40779e-05 0)
(84.4736 -5.63876e-05 0)
(72.64 -5.27419e-05 0)
(60.1345 4.07576e-05 0)
(59.3348 0.000169994 0)
(62.7342 0.000245513 0)
(64.2391 0.000224606 0)
(63.8041 0.000109776 0)
(63.1954 -1.51002e-05 0)
(63.0914 -6.35448e-05 0)
(63.2317 -5.45009e-05 0)
(63.3159 -1.75663e-05 0)
(63.3066 2.97263e-05 0)
(63.278 3.80632e-05 0)
(63.2703 0.000111578 0)
(63.2761 0.000257785 0)
(63.2808 0.000313549 0)
(63.281 0.000264924 0)
(63.2797 0.000198814 0)
(63.2789 0.000176029 0)
(63.2789 0.000167283 0)
(63.2789 0.000114616 0)
(63.2789 9.09637e-05 0)
(63.2789 0.000155557 0)
(63.2788 0.000238203 0)
(63.279 0.000266167 0)
(63.2792 0.000264977 0)
(63.2793 0.000277238 0)
(63.2794 0.000301634 0)
(63.2793 0.00030135 0)
(63.2793 0.000257964 0)
(63.2794 0.00019398 0)
(63.2794 0.000150329 0)
(63.2793 0.000135983 0)
(63.2792 0.000132227 0)
(63.2792 0.000136797 0)
(63.2794 0.000142499 0)
(63.2796 0.00013841 0)
(63.2797 0.000123331 0)
(63.2798 0.000103489 0)
(63.2799 9.14503e-05 0)
(63.28 9.67809e-05 0)
(63.28 0.000123853 0)
(63.2801 0.000160527 0)
(63.2801 0.000192214 0)
(63.2801 0.000226569 0)
(63.2801 0.000251017 0)
(63.28 0.000241506 0)
(63.2799 0.000225306 0)
(63.2799 0.000246825 0)
(63.2799 0.000302685 0)
(63.28 0.000338342 0)
(63.2801 0.000302818 0)
(63.2801 0.000229033 0)
(63.2801 0.00020862 0)
(63.2801 0.000269317 0)
(63.2802 0.000334879 0)
(63.2802 0.000322119 0)
(63.2803 0.000246183 0)
(63.2803 0.000191833 0)
(63.2804 0.000196431 0)
(63.2804 0.000218026 0)
(63.2804 0.000213073 0)
(63.2803 0.000189984 0)
(63.2803 0.000175119 0)
(63.2804 0.000165743 0)
(63.2804 0.000135569 0)
(63.2805 7.6156e-05 0)
(63.2806 2.03379e-05 0)
(63.2806 1.01796e-05 0)
(63.2806 4.28204e-05 0)
(63.2805 7.6942e-05 0)
(63.2805 9.40782e-05 0)
(63.2806 0.000112579 0)
(63.2807 0.000144294 0)
(63.2807 0.000183868 0)
(63.2808 0.000223109 0)
(63.2808 0.000239419 0)
(63.2809 0.000214039 0)
(63.2809 0.000175356 0)
(63.2811 0.000166598 0)
(63.2812 0.000178903 0)
(63.2812 0.000175373 0)
(63.2812 0.000156373 0)
(63.2813 0.000148487 0)
(63.2814 0.000152252 0)
(63.2815 0.000144763 0)
(63.2815 0.000115755 0)
(63.2815 7.80155e-05 0)
(63.2815 5.64428e-05 0)
(63.2815 6.86939e-05 0)
(63.2816 0.000103598 0)
(63.2817 0.000128012 0)
(63.2818 0.000128596 0)
(63.2818 0.000132238 0)
(63.2818 0.000163328 0)
(63.2819 0.000199073 0)
(63.2819 0.000197154 0)
(63.282 0.000158282 0)
(63.2822 0.000129587 0)
(63.2824 0.000144089 0)
(63.2825 0.000184499 0)
(63.2826 0.000211367 0)
(63.2826 0.000209112 0)
(63.2825 0.000203248 0)
(63.2826 0.00022961 0)
(63.2826 0.000282626 0)
(63.2827 0.000313588 0)
(63.2827 0.000292216 0)
(63.2826 0.000250022 0)
(63.2825 0.00024491 0)
(63.2825 0.00029364 0)
(63.2825 0.000355008 0)
(63.2826 0.000376184 0)
(63.2825 0.000346634 0)
(63.2825 0.000306332 0)
(63.2825 0.000298507 0)
(63.2825 0.000321068 0)
(63.2825 0.000338477 0)
(63.2825 0.000336273 0)
(63.2825 0.000334105 0)
(63.2826 0.000341032 0)
(63.2826 0.000338164 0)
(63.2827 0.000317611 0)
(63.2827 0.000297222 0)
(63.2827 0.000284404 0)
(63.2827 0.000264602 0)
(63.2828 0.000234369 0)
(63.2829 0.000208318 0)
(63.283 0.000192213 0)
(63.2831 0.000183292 0)
(63.2831 0.000184748 0)
(63.2832 0.000192432 0)
(63.2831 0.000195736 0)
(63.2831 0.000209158 0)
(63.2831 0.00026016 0)
(63.2832 0.000333247 0)
(63.2832 0.00037508 0)
(63.2831 0.00035927 0)
(63.2831 0.000307572 0)
(63.283 0.000257466 0)
(63.2829 0.000240374 0)
(63.2829 0.000266046 0)
(63.2829 0.000300238 0)
(63.2828 0.000298931 0)
(63.2827 0.000273763 0)
(63.2826 0.000272601 0)
(63.2826 0.000298382 0)
(63.2826 0.000307552 0)
(63.2826 0.000282193 0)
(63.2827 0.000244781 0)
(63.2827 0.00021045 0)
(63.2827 0.000174944 0)
(63.2827 0.000140299 0)
(63.2828 0.000119105 0)
(63.2829 0.000119601 0)
(63.283 0.00013713 0)
(63.2831 0.000150149 0)
(63.2832 0.000134664 0)
(63.2833 9.95601e-05 0)
(63.2835 8.68417e-05 0)
(63.2836 0.000115681 0)
(63.2838 0.000150779 0)
(63.2839 0.000147998 0)
(63.2839 0.000108984 0)
(63.2839 7.29396e-05 0)
(63.284 7.45099e-05 0)
(63.2841 0.000119719 0)
(63.2843 0.000181587 0)
(63.2844 0.000214166 0)
(63.2844 0.000196527 0)
(63.2844 0.000164371 0)
(63.2844 0.000167301 0)
(63.2845 0.000200675 0)
(63.2845 0.000217834 0)
(63.2845 0.000201343 0)
(63.2845 0.000179828 0)
(63.2845 0.000180619 0)
(63.2846 0.000202475 0)
(63.2847 0.000230739 0)
(63.2848 0.000253689 0)
(63.2848 0.000268283 0)
(63.2848 0.000281139 0)
(63.2848 0.000297584 0)
(63.2848 0.000314439 0)
(63.2848 0.000332715 0)
(63.2849 0.000358908 0)
(63.2849 0.000381449 0)
(63.2849 0.000373756 0)
(63.2848 0.000337559 0)
(63.2848 0.000312807 0)
(63.2849 0.000325618 0)
(63.2849 0.00035516 0)
(63.2849 0.00036824 0)
(63.2848 0.000360908 0)
(63.2848 0.000352408 0)
(63.2848 0.000360129 0)
(63.2847 0.000390663 0)
(63.2848 0.000435426 0)
(63.2848 0.000468797 0)
(63.2848 0.000465494 0)
(63.2847 0.000425744 0)
(63.2847 0.000374868 0)
(63.2847 0.000337195 0)
(63.2847 0.000318901 0)
(63.2847 0.000312749 0)
(63.2847 0.000309886 0)
(63.2847 0.000307902 0)
(63.2847 0.000313087 0)
(63.2847 0.00033158 0)
(63.2848 0.000356006 0)
(63.2848 0.000369399 0)
(63.2848 0.000363158 0)
(63.2847 0.000340391 0)
(63.2847 0.000306857 0)
(63.2846 0.000275495 0)
(63.2846 0.00026783 0)
(63.2847 0.000287415 0)
(63.2848 0.000305252 0)
(63.2848 0.000292692 0)
(63.2848 0.000254159 0)
(63.2848 0.0002138 0)
(63.2848 0.000189595 0)
(63.2848 0.000187225 0)
(63.2849 0.000197738 0)
(63.2849 0.000202232 0)
(63.285 0.000197088 0)
(63.285 0.000201959 0)
(63.2851 0.000224843 0)
(63.2852 0.000241623 0)
(63.2852 0.000230347 0)
(63.2853 0.000202444 0)
(63.2853 0.000182527 0)
(63.2853 0.00017981 0)
(63.2854 0.000191514 0)
(63.2855 0.000212911 0)
(63.2855 0.000235316 0)
(63.2856 0.000248939 0)
(63.2857 0.000249815 0)
(63.2857 0.000238019 0)
(63.2857 0.000216833 0)
(63.2858 0.000198017 0)
(63.2858 0.000196087 0)
(63.2859 0.000210635 0)
(63.286 0.000226271 0)
(63.2861 0.000234396 0)
(63.2861 0.000239044 0)
(63.2862 0.000241824 0)
(63.2863 0.000235833 0)
(63.2864 0.000242246 0)
(49.7885 3.81555e-05 0)
(84.474 0.000224548 0)
(72.641 0.000349856 0)
(60.1354 0.000295456 0)
(59.3355 0.000150243 0)
(62.7348 9.95002e-05 0)
(64.2395 0.000216993 0)
(63.8047 0.000373123 0)
(63.196 0.000513397 0)
(63.0923 0.000619161 0)
(63.2326 0.000619023 0)
(63.3167 0.000520232 0)
(63.3077 0.000444338 0)
(63.2792 0.000342063 0)
(63.2706 0.000194503 0)
(63.2758 0.000165261 0)
(63.2803 0.000294465 0)
(63.2803 0.00042712 0)
(63.2793 0.000482593 0)
(63.279 0.000501627 0)
(63.2795 0.000510754 0)
(63.2797 0.000497594 0)
(63.2798 0.000450067 0)
(63.2797 0.000378362 0)
(63.2799 0.000271645 0)
(63.2799 0.000181209 0)
(63.2798 0.000187108 0)
(63.2798 0.000245151 0)
(63.28 0.000274216 0)
(63.2801 0.000272121 0)
(63.2802 0.000276412 0)
(63.2803 0.000328466 0)
(63.2803 0.000403282 0)
(63.2803 0.000435562 0)
(63.2803 0.00039735 0)
(63.2803 0.000335982 0)
(63.2803 0.000310298 0)
(63.2802 0.000331532 0)
(63.2802 0.000372325 0)
(63.2802 0.000394241 0)
(63.2801 0.000379383 0)
(63.28 0.00034085 0)
(63.2799 0.000315621 0)
(63.2799 0.000322963 0)
(63.2799 0.000340596 0)
(63.28 0.000363137 0)
(63.2801 0.000403956 0)
(63.2803 0.000443231 0)
(63.2803 0.000448198 0)
(63.2804 0.0004021 0)
(63.2805 0.000321887 0)
(63.2806 0.000258528 0)
(63.2808 0.000241619 0)
(63.2809 0.000258713 0)
(63.2809 0.000296126 0)
(63.2809 0.000348037 0)
(63.281 0.000390102 0)
(63.2811 0.000382029 0)
(63.2812 0.000317995 0)
(63.2813 0.000254295 0)
(63.2813 0.00025335 0)
(63.2814 0.000316172 0)
(63.2814 0.000394953 0)
(63.2814 0.000450215 0)
(63.2813 0.000472575 0)
(63.2813 0.000468203 0)
(63.2813 0.000447721 0)
(63.2813 0.000425367 0)
(63.2813 0.000421623 0)
(63.2813 0.000453747 0)
(63.2813 0.000506429 0)
(63.2813 0.000528631 0)
(63.2812 0.000490584 0)
(63.2812 0.000423117 0)
(63.2812 0.000371306 0)
(63.2812 0.000347243 0)
(63.2812 0.000345224 0)
(63.2813 0.000348427 0)
(63.2813 0.000327753 0)
(63.2813 0.000286911 0)
(63.2813 0.000274568 0)
(63.2813 0.000312641 0)
(63.2813 0.00035874 0)
(63.2812 0.000368299 0)
(63.2812 0.00034994 0)
(63.2812 0.000341438 0)
(63.2812 0.000366248 0)
(63.2812 0.000417693 0)
(63.2812 0.000461827 0)
(63.2811 0.000464101 0)
(63.2811 0.00042666 0)
(63.2811 0.00038596 0)
(63.281 0.000369411 0)
(63.281 0.000374298 0)
(63.281 0.000391375 0)
(63.2809 0.00042006 0)
(63.2809 0.000446771 0)
(63.2809 0.000436461 0)
(63.2808 0.000370956 0)
(63.2808 0.000283146 0)
(63.2808 0.000230812 0)
(63.2808 0.000242191 0)
(63.2809 0.000295216 0)
(63.2809 0.000339033 0)
(63.2809 0.000339128 0)
(63.2809 0.000311269 0)
(63.2809 0.000300925 0)
(63.281 0.000327869 0)
(63.2812 0.000366054 0)
(63.2812 0.000378746 0)
(63.2812 0.000357169 0)
(63.2813 0.000320515 0)
(63.2814 0.000291753 0)
(63.2815 0.000277207 0)
(63.2816 0.000266266 0)
(63.2817 0.000251131 0)
(63.2817 0.000240266 0)
(63.2818 0.000241609 0)
(63.2819 0.000241973 0)
(63.2819 0.000224677 0)
(63.2819 0.000201847 0)
(63.282 0.000200696 0)
(63.2821 0.000224215 0)
(63.2821 0.000255262 0)
(63.2821 0.00028628 0)
(63.2822 0.000312327 0)
(63.2822 0.000312955 0)
(63.2822 0.000276526 0)
(63.2822 0.000225343 0)
(63.2822 0.000190526 0)
(63.2822 0.000186739 0)
(63.2823 0.000221611 0)
(63.2823 0.000289327 0)
(63.2823 0.000352348 0)
(63.2823 0.000374451 0)
(63.2823 0.000364623 0)
(63.2824 0.000351885 0)
(63.2825 0.000340699 0)
(63.2827 0.000325489 0)
(63.2828 0.000312781 0)
(63.2829 0.000306825 0)
(63.2831 0.00030983 0)
(63.2832 0.000337213 0)
(63.2834 0.000391538 0)
(63.2835 0.000433943 0)
(63.2836 0.00042881 0)
(63.2837 0.000394993 0)
(63.2838 0.000369909 0)
(63.2839 0.00035691 0)
(63.2839 0.000346596 0)
(63.284 0.000349471 0)
(63.2841 0.000372399 0)
(63.2841 0.000395674 0)
(63.2841 0.000396529 0)
(63.284 0.000372122 0)
(63.2839 0.00033609 0)
(63.2839 0.000310721 0)
(63.2839 0.000310972 0)
(63.2838 0.000322923 0)
(63.2838 0.000319013 0)
(63.2837 0.000301183 0)
(63.2836 0.000301442 0)
(63.2836 0.000334568 0)
(63.2836 0.000378148 0)
(63.2836 0.000402347 0)
(63.2835 0.000396138 0)
(63.2835 0.000367268 0)
(63.2834 0.000339607 0)
(63.2834 0.000342518 0)
(63.2834 0.00037827 0)
(63.2834 0.000411129 0)
(63.2834 0.000412677 0)
(63.2834 0.000398791 0)
(63.2834 0.000395956 0)
(63.2834 0.000396581 0)
(63.2834 0.000377796 0)
(63.2834 0.000339973 0)
(63.2834 0.000301082 0)
(63.2834 0.00027408 0)
(63.2834 0.000265141 0)
(63.2834 0.000274321 0)
(63.2834 0.000292027 0)
(63.2835 0.000308272 0)
(63.2835 0.000319424 0)
(63.2835 0.000319013 0)
(63.2835 0.000301518 0)
(63.2836 0.000279623 0)
(63.2837 0.000270692 0)
(63.2838 0.000265208 0)
(63.2838 0.000239932 0)
(63.2839 0.000200989 0)
(63.284 0.000181141 0)
(63.2841 0.000195096 0)
(63.2842 0.000226592 0)
(63.2843 0.00025627 0)
(63.2844 0.00027633 0)
(63.2844 0.000282386 0)
(63.2845 0.000274334 0)
(63.2846 0.000263375 0)
(63.2847 0.000261226 0)
(63.2848 0.000265531 0)
(63.2849 0.000265648 0)
(63.285 0.000257587 0)
(63.2851 0.000246415 0)
(63.2851 0.000239758 0)
(63.2852 0.000243779 0)
(63.2853 0.000258456 0)
(63.2854 0.000273881 0)
(63.2854 0.000279776 0)
(63.2855 0.000279814 0)
(63.2855 0.000286582 0)
(63.2856 0.000304733 0)
(63.2858 0.000329993 0)
(63.2859 0.000355695 0)
(63.2859 0.000368071 0)
(63.286 0.000351742 0)
(63.286 0.000313956 0)
(63.286 0.00028399 0)
(63.2861 0.000278579 0)
(63.2862 0.00028841 0)
(63.2863 0.000300062 0)
(63.2863 0.000308054 0)
(63.2863 0.000309201 0)
(63.2863 0.000306402 0)
(63.2863 0.000308384 0)
(63.2864 0.000311886 0)
(63.2863 0.000303578 0)
(63.2863 0.000288056 0)
(63.2863 0.000287479 0)
(63.2864 0.000307199 0)
(63.2864 0.000328991 0)
(63.2864 0.000340215 0)
(63.2864 0.000343399 0)
(63.2864 0.00033989 0)
(63.2863 0.000328307 0)
(63.2863 0.000314744 0)
(63.2863 0.000307531 0)
(63.2863 0.000308267 0)
(63.2863 0.000315758 0)
(63.2863 0.000328179 0)
(63.2863 0.000337368 0)
(63.2863 0.000333722 0)
(63.2862 0.000319529 0)
(63.2862 0.000304419 0)
(63.2862 0.000290436 0)
(63.2861 0.000276675 0)
(63.2861 0.000270751 0)
(63.2861 0.000277575 0)
(63.2861 0.000290803 0)
(63.2861 0.000289598 0)
(49.7881 3.54982e-05 0)
(84.4738 9.5835e-05 0)
(72.6409 0.000172922 0)
(60.1353 0.000254491 0)
(59.3353 0.000247668 0)
(62.7342 0.000172297 0)
(64.2388 9.10693e-05 0)
(63.804 5.90668e-05 0)
(63.1953 5.18961e-05 0)
(63.0917 4.95627e-05 0)
(63.2323 0.000105716 0)
(63.3165 0.000162329 0)
(63.3074 0.000229445 0)
(63.2792 0.000304559 0)
(63.2711 0.000294545 0)
(63.2764 0.00020332 0)
(63.2809 0.000145842 0)
(63.2812 8.0314e-05 0)
(63.28 -4.93062e-05 0)
(63.2795 -0.000108597 0)
(63.2796 -1.92377e-05 0)
(63.2797 0.000107317 0)
(63.28 0.000131863 0)
(63.28 0.00010442 0)
(63.2798 0.000125459 0)
(63.2797 0.000204052 0)
(63.2796 0.000267671 0)
(63.2795 0.000229016 0)
(63.2794 0.000131496 0)
(63.2794 0.000104069 0)
(63.2794 0.000155532 0)
(63.2794 0.000211462 0)
(63.2795 0.000218248 0)
(63.2796 0.000188665 0)
(63.2796 0.000163196 0)
(63.2797 0.00015773 0)
(63.2797 0.000159493 0)
(63.2797 0.000164726 0)
(63.2798 0.000189085 0)
(63.2798 0.00022829 0)
(63.28 0.000261036 0)
(63.2801 0.000273526 0)
(63.2801 0.000265757 0)
(63.2802 0.000238347 0)
(63.2802 0.000173916 0)
(63.2802 8.94465e-05 0)
(63.2803 5.10179e-05 0)
(63.2803 8.18353e-05 0)
(63.2803 0.000134198 0)
(63.2803 0.00014528 0)
(63.2802 0.000100202 0)
(63.2802 5.92844e-05 0)
(63.2801 8.4618e-05 0)
(63.28 0.000155531 0)
(63.2799 0.000202974 0)
(63.2798 0.000197451 0)
(63.2797 0.000167131 0)
(63.2797 0.000140565 0)
(63.2797 0.000113976 0)
(63.2797 8.86197e-05 0)
(63.2797 9.53571e-05 0)
(63.2798 0.000153782 0)
(63.2798 0.000233683 0)
(63.2798 0.000278951 0)
(63.2799 0.000257694 0)
(63.28 0.000185072 0)
(63.2802 0.000107558 0)
(63.2804 6.20375e-05 0)
(63.2805 5.15395e-05 0)
(63.2806 6.42779e-05 0)
(63.2807 9.36404e-05 0)
(63.2809 0.0001255 0)
(63.2811 0.000140466 0)
(63.2811 0.000145488 0)
(63.2812 0.000161471 0)
(63.2812 0.000181459 0)
(63.2812 0.000189471 0)
(63.2813 0.000191513 0)
(63.2813 0.000190245 0)
(63.2813 0.00017766 0)
(63.2813 0.000169555 0)
(63.2813 0.00019184 0)
(63.2813 0.000229581 0)
(63.2814 0.000238002 0)
(63.2814 0.000201506 0)
(63.2815 0.00014741 0)
(63.2815 0.000112304 0)
(63.2816 0.000114423 0)
(63.2817 0.00014146 0)
(63.2819 0.000158891 0)
(63.282 0.000147246 0)
(63.2821 0.000129374 0)
(63.2822 0.000142961 0)
(63.2823 0.000190697 0)
(63.2823 0.00023985 0)
(63.2823 0.000266656 0)
(63.2824 0.000275132 0)
(63.2825 0.000271252 0)
(63.2826 0.000246114 0)
(63.2827 0.000197141 0)
(63.2827 0.000145651 0)
(63.2827 0.000121742 0)
(63.2827 0.000139388 0)
(63.2827 0.000180375 0)
(63.2828 0.000202477 0)
(63.2828 0.0001809 0)
(63.2828 0.000138502 0)
(63.2828 0.00011973 0)
(63.2828 0.000139813 0)
(63.2829 0.000173326 0)
(63.2829 0.000187534 0)
(63.2828 0.000173659 0)
(63.2828 0.000149672 0)
(63.2828 0.000140223 0)
(63.2828 0.000151484 0)
(63.2828 0.000168756 0)
(63.2828 0.00018186 0)
(63.2827 0.000199351 0)
(63.2827 0.000226292 0)
(63.2827 0.000246393 0)
(63.2827 0.000247821 0)
(63.2826 0.000245997 0)
(63.2826 0.000256463 0)
(63.2826 0.000269229 0)
(63.2825 0.000271981 0)
(63.2825 0.000270682 0)
(63.2826 0.000267961 0)
(63.2826 0.000252527 0)
(63.2826 0.000223828 0)
(63.2826 0.000195106 0)
(63.2826 0.000171627 0)
(63.2825 0.000158631 0)
(63.2825 0.000172739 0)
(63.2826 0.00021009 0)
(63.2826 0.000232394 0)
(63.2825 0.00021497 0)
(63.2825 0.000174164 0)
(63.2825 0.00013183 0)
(63.2825 9.41307e-05 0)
(63.2825 6.65062e-05 0)
(63.2825 4.81628e-05 0)
(63.2825 2.43726e-05 0)
(63.2824 -1.41536e-06 0)
(63.2824 2.74478e-06 0)
(63.2825 4.54081e-05 0)
(63.2825 9.10999e-05 0)
(63.2825 0.000115836 0)
(63.2825 0.000134546 0)
(63.2825 0.000156769 0)
(63.2825 0.000167098 0)
(63.2825 0.000161591 0)
(63.2825 0.000159298 0)
(63.2826 0.00017238 0)
(63.2827 0.000194652 0)
(63.2828 0.000213417 0)
(63.2828 0.000216419 0)
(63.2829 0.000203481 0)
(63.2829 0.00019562 0)
(63.283 0.000209506 0)
(63.2831 0.000227622 0)
(63.2832 0.000220333 0)
(63.2832 0.00018892 0)
(63.2832 0.000161072 0)
(63.2833 0.000154389 0)
(63.2834 0.000166081 0)
(63.2836 0.000185467 0)
(63.2837 0.000197456 0)
(63.2837 0.00019021 0)
(63.2838 0.000175118 0)
(63.2838 0.000178527 0)
(63.2839 0.000200742 0)
(63.284 0.000210732 0)
(63.2841 0.000194212 0)
(63.2841 0.000174093 0)
(63.2842 0.000170967 0)
(63.2843 0.000177201 0)
(63.2844 0.000179638 0)
(63.2845 0.000177812 0)
(63.2846 0.000175456 0)
(63.2846 0.000176343 0)
(63.2847 0.000185247 0)
(63.2847 0.000200603 0)
(63.2847 0.000216346 0)
(63.2847 0.000232687 0)
(63.2848 0.000247661 0)
(63.2848 0.000246231 0)
(63.2848 0.000222087 0)
(63.2848 0.000197116 0)
(63.2848 0.000192185 0)
(63.2848 0.000194811 0)
(63.2848 0.000181999 0)
(63.2848 0.000158123 0)
(63.2848 0.000145451 0)
(63.2847 0.000153182 0)
(63.2847 0.000175946 0)
(63.2848 0.000207617 0)
(63.2848 0.000239494 0)
(63.2847 0.000258063 0)
(63.2847 0.000258057 0)
(63.2847 0.000248467 0)
(63.2847 0.000239264 0)
(63.2847 0.000230939 0)
(63.2847 0.000219902 0)
(63.2847 0.000205294 0)
(63.2847 0.000188868 0)
(63.2847 0.000175698 0)
(63.2847 0.000173807 0)
(63.2847 0.000185024 0)
(63.2848 0.000199286 0)
(63.2848 0.000205906 0)
(63.2848 0.000204277 0)
(63.2848 0.00019736 0)
(63.2848 0.000187517 0)
(63.2848 0.000183773 0)
(63.2849 0.00019431 0)
(63.2849 0.000208371 0)
(63.285 0.000207134 0)
(63.285 0.000191249 0)
(63.285 0.000176368 0)
(63.285 0.000169259 0)
(63.2851 0.000167615 0)
(63.2851 0.000170511 0)
(63.2851 0.000174459 0)