/*--------------------------------*- C++ -*----------------------------------*\
| =========                 |                                                 |
| \\      /  F ield         | OpenFOAM: The Open Source CFD Toolbox           |
|  \\    /   O peration     | Version:  2406                                  |
|   \\  /    A nd           | Website:  www.openfoam.com                      |
|    \\/     M anipulation  |                                                 |
\*---------------------------------------------------------------------------*/
FoamFile
{
    version     2.0;
    format      ascii;
    arch        "LSB;label=32;scalar=64";
    class       surfaceScalarField;
    location    "0.55";
    object      alphaPhi0.air;
}
// * * * * * * * * * * * * * * * * * * * * * * * * * * * * * * * * * * * * * //

dimensions      [0 3 -1 0 0 0 0];

oriented        oriented;

internalField   nonuniform List<scalar> 
12225
(
0.466614
2.4175e-06
0.466607
7.03336e-06
0.466598
8.13926e-06
0.466592
6.10617e-06
0.466587
5.69445e-06
0.466581
5.95143e-06
0.466575
6.21716e-06
0.466569
5.78664e-06
0.466564
4.71945e-06
0.466559
4.86972e-06
0.466554
5.33094e-06
0.466548
5.55655e-06
0.466543
5.73517e-06
0.466537
5.88268e-06
0.466531
6.06654e-06
0.466524
6.2447e-06
0.466518
6.19559e-06
0.466512
6.06768e-06
0.466506
5.9692e-06
0.4665
5.65078e-06
0.466495
5.36806e-06
0.46649
5.45905e-06
0.466484
5.57534e-06
0.466479
5.45024e-06
0.466473
5.41431e-06
0.466468
5.55142e-06
0.466462
5.4533e-06
0.466457
5.14295e-06
0.466452
4.95546e-06
0.466447
4.86174e-06
0.466442
4.84624e-06
0.466437
4.9579e-06
0.466432
5.08448e-06
0.466427
5.21574e-06
0.466422
5.42892e-06
0.466416
5.69816e-06
0.46641
5.86093e-06
0.466404
5.71138e-06
0.466399
5.34936e-06
0.466394
5.14734e-06
0.466389
5.19441e-06
0.466384
5.14431e-06
0.466379
4.8615e-06
0.466374
4.65883e-06
0.466369
4.72263e-06
0.466364
4.84672e-06
0.46636
4.81978e-06
0.466355
4.67019e-06
0.46635
4.50056e-06
0.466346
4.37593e-06
0.466342
4.36923e-06
0.466337
4.45489e-06
0.466333
4.43397e-06
0.466329
4.19566e-06
0.466325
3.8944e-06
0.466321
3.76179e-06
0.466317
3.84475e-06
0.466313
4.02244e-06
0.466309
4.19027e-06
0.466305
4.32016e-06
0.4663
4.40986e-06
0.466296
4.46344e-06
0.466291
4.51637e-06
0.466287
4.60398e-06
0.466282
4.71494e-06
0.466277
4.80612e-06
0.466272
4.85057e-06
0.466267
4.85971e-06
0.466263
4.85795e-06
0.466258
4.86411e-06
0.466253
4.89125e-06
0.466248
4.94833e-06
0.466243
5.02566e-06
0.466238
5.09065e-06
0.466233
5.11208e-06
0.466228
5.1104e-06
0.466222
5.16488e-06
0.466217
5.33683e-06
0.466211
5.58301e-06
0.466206
5.7646e-06
0.4662
5.77171e-06
0.466194
5.63843e-06
0.466189
5.51595e-06
0.466183
5.52407e-06
0.466178
5.63769e-06
0.466172
5.71511e-06
0.466166
5.63383e-06
0.466161
5.40705e-06
0.466156
5.18146e-06
0.466151
5.1172e-06
0.466145
5.23933e-06
0.46614
5.38943e-06
0.466135
5.37972e-06
0.466129
5.20114e-06
0.466124
5.04908e-06
0.466119
5.09672e-06
0.466114
5.27603e-06
0.466109
5.35864e-06
0.466103
5.24341e-06
0.466098
5.07201e-06
0.466093
5.023e-06
0.466088
5.06356e-06
0.466083
5.01196e-06
0.466078
4.8017e-06
0.466074
4.5707e-06
0.466069
4.46909e-06
0.466065
4.46059e-06
0.46606
4.38861e-06
0.466056
4.18228e-06
0.466052
3.91286e-06
0.466049
3.66741e-06
0.466045
3.45544e-06
0.466042
3.25947e-06
0.466039
3.10182e-06
0.466036
2.99477e-06
0.466033
2.86516e-06
0.46603
2.61274e-06
0.466028
2.23811e-06
0.466026
1.86445e-06
0.466025
1.62631e-06
0.466023
1.55507e-06
0.466022
1.55456e-06
0.46602
1.48924e-06
0.466019
1.2977e-06
0.466018
1.02421e-06
0.466017
8.01285e-07
0.466016
7.5627e-07
0.466015
8.50475e-07
0.466014
9.12954e-07
0.466014
8.03218e-07
0.466013
5.47984e-07
0.466013
3.47588e-07
0.466012
3.62267e-07
0.466012
5.1867e-07
0.466011
6.39651e-07
0.466011
6.10887e-07
0.46601
4.63619e-07
0.46601
3.1223e-07
0.46601
2.45978e-07
0.466009
2.65629e-07
0.466009
3.32414e-07
0.466009
4.0253e-07
0.466008
4.39951e-07
0.466008
4.24908e-07
0.466007
3.61154e-07
0.466007
2.70133e-07
0.466007
1.80036e-07
0.466007
1.12473e-07
0.466007
5.41894e-08
0.466007
5.09632e-08
0.466007
1.47026e-07
0.466006
3.12728e-07
0.466006
4.56119e-07
0.466005
4.73747e-07
0.466005
3.34805e-07
0.466005
1.37623e-07
0.466005
-1.26886e-08
0.466005
-2.90838e-08
0.466005
6.85487e-08
0.466005
1.88222e-07
0.466004
2.62315e-07
0.466004
2.90156e-07
0.466004
2.92785e-07
0.466004
2.36879e-07
0.466003
1.22157e-07
0.466003
-5.91837e-08
0.466004
-1.84294e-07
0.466004
-1.70817e-07
0.466004
-6.97155e-08
0.466004
2.96204e-08
0.466004
1.23232e-07
0.466004
2.06039e-07
0.466003
2.4919e-07
0.466003
2.06678e-07
0.466003
7.04753e-08
0.466003
-1.58197e-07
0.466003
-2.8349e-07
0.466004
-2.1776e-07
0.466004
-1.07846e-08
0.466004
1.45109e-07
0.466003
1.33795e-07
0.466003
5.56454e-08
0.466003
6.66138e-08
0.466003
1.70345e-07
0.466003
2.13491e-07
0.466003
1.54475e-07
0.466003
-6.95922e-08
0.466003
-2.65764e-07
0.466003
-3.13183e-07
0.466004
-2.0874e-07
0.466004
-5.80117e-08
0.466004
1.57102e-08
0.466004
5.91239e-09
0.466004
1.0357e-08
0.466004
3.82097e-08
0.466004
4.35139e-08
0.466004
-4.92279e-08
0.466004
-1.94742e-07
0.466004
-2.91204e-07
0.466004
-2.80083e-07
0.466005
-1.88827e-07
0.466005
-1.13118e-07
0.466005
-1.10828e-07
0.466005
-1.57953e-07
0.466005
-1.91812e-07
0.466005
-1.7082e-07
0.466005
-1.16073e-07
0.466005
-9.30529e-08
0.466006
-1.49142e-07
0.466006
-2.82605e-07
0.466006
-4.39765e-07
0.466007
-5.48917e-07
0.466007
-5.71089e-07
0.466008
-5.27484e-07
0.466008
-4.71004e-07
0.466009
-4.39818e-07
0.466009
-4.32282e-07
0.46601
-4.2132e-07
0.46601
-3.95972e-07
0.466011
-3.68977e-07
0.466011
-3.66946e-07
0.466011
-4.09043e-07
0.466012
-4.94931e-07
0.466012
-6.0726e-07
0.466013
-7.18298e-07
0.466014
-7.94129e-07
0.466015
-8.10242e-07
0.466015
-7.66648e-07
0.466016
-6.92557e-07
0.466017
-6.36774e-07
0.466017
-6.35375e-07
0.466018
-6.85312e-07
0.466019
-7.45669e-07
0.46602
-7.79016e-07
0.46602
-8.02611e-07
0.466021
-8.80727e-07
0.466022
-1.05415e-06
0.466024
-1.26926e-06
0.466025
-1.40429e-06
0.466026
-1.38034e-06
0.466028
-1.25665e-06
0.466029
-1.17991e-06
0.46603
-1.24668e-06
0.466032
-1.40064e-06
0.466033
-1.48542e-06
0.466034
-1.40309e-06
0.466036
-1.18039e-06
0.466036
-9.28054e-07
0.466037
-7.56474e-07
-4.74229e-07
0.466622
-5.58437e-07
0.466629
3.19442e-07
0.466635
1.75019e-06
0.466639
2.19948e-06
0.466643
1.92698e-06
0.466647
1.99278e-06
0.466651
2.01963e-06
0.466654
2.38336e-06
0.466656
2.38261e-06
0.466659
1.95752e-06
0.466663
2.00985e-06
0.466666
2.52059e-06
0.466669
2.71698e-06
0.466672
2.56169e-06
0.466676
2.43508e-06
0.466679
2.50535e-06
0.466683
2.53979e-06
0.466687
2.42902e-06
0.46669
2.66742e-06
0.466693
3.05259e-06
0.466695
2.88292e-06
0.466698
2.55479e-06
0.466701
2.65551e-06
0.466704
2.80656e-06
0.466706
2.74009e-06
0.466709
2.62179e-06
0.466712
2.71042e-06
0.466714
2.79727e-06
0.466717
2.69124e-06
0.466719
2.51176e-06
0.466721
2.33263e-06
0.466724
2.27298e-06
0.466727
2.39946e-06
0.46673
2.45331e-06
0.466733
2.23992e-06
0.466736
2.02224e-06
0.46674
2.12712e-06
0.466743
2.38717e-06
0.466746
2.40348e-06
0.466749
2.21607e-06
0.466752
2.23217e-06
0.466755
2.54503e-06
0.466757
2.74506e-06
0.466759
2.54034e-06
0.466762
2.18957e-06
0.466764
2.0918e-06
0.466767
2.30368e-06
0.466769
2.58717e-06
0.466771
2.7184e-06
0.466773
2.65801e-06
0.466774
2.51321e-06
0.466776
2.42404e-06
0.466778
2.43553e-06
0.46678
2.50604e-06
0.466781
2.60496e-06
0.466782
2.71419e-06
0.466784
2.77772e-06
0.466785
2.73619e-06
0.466786
2.6302e-06
0.466788
2.55975e-06
0.46679
2.55421e-06
0.466792
2.55835e-06
0.466794
2.52245e-06
0.466796
2.44395e-06
0.466798
2.3299e-06
0.466801
2.20862e-06
0.466804
2.15993e-06
0.466806
2.24153e-06
0.466809
2.37458e-06
0.466811
2.39825e-06
0.466814
2.26785e-06
0.466817
2.13041e-06
0.46682
2.16102e-06
0.466822
2.35851e-06
0.466825
2.55937e-06
0.466827
2.63135e-06
0.46683
2.59662e-06
0.466833
2.569e-06
0.466836
2.61542e-06
0.466839
2.70366e-06
0.466842
2.76603e-06
0.466845
2.77396e-06
0.466847
2.73913e-06
0.46685
2.67049e-06
0.466853
2.57027e-06
0.466857
2.46885e-06
0.46686
2.42438e-06
0.466863
2.45087e-06
0.466865
2.46816e-06
0.466868
2.38248e-06
0.466871
2.21761e-06
0.466874
2.10919e-06
0.466878
2.13483e-06
0.466881
2.21048e-06
0.466884
2.21543e-06
0.466886
2.17141e-06
0.46689
2.20221e-06
0.466893
2.32232e-06
0.466895
2.38324e-06
0.466898
2.28197e-06
0.466901
2.13281e-06
0.466904
2.12212e-06
0.466907
2.24645e-06
0.466909
2.31565e-06
0.466912
2.21753e-06
0.466914
2.06468e-06
0.466916
2.02267e-06
0.466919
2.08861e-06
0.466921
2.13198e-06
0.466923
2.1065e-06
0.466924
2.10819e-06
0.466925
2.2143e-06
0.466926
2.35773e-06
0.466927
2.41094e-06
0.466928
2.34718e-06
0.466928
2.25599e-06
0.466929
2.22039e-06
0.466929
2.23936e-06
0.466928
2.26674e-06
0.466928
2.27546e-06
0.466927
2.27506e-06
0.466926
2.29464e-06
0.466925
2.36065e-06
0.466924
2.46409e-06
0.466923
2.53537e-06
0.466921
2.50347e-06
0.466919
2.4003e-06
0.466918
2.34859e-06
0.466916
2.42524e-06
0.466914
2.552e-06
0.466912
2.56495e-06
0.46691
2.41152e-06
0.466909
2.22112e-06
0.466907
2.15606e-06
0.466905
2.24996e-06
0.466904
2.39561e-06
0.466902
2.46738e-06
0.466899
2.43071e-06
0.466897
2.34247e-06
0.466895
2.2804e-06
0.466893
2.29495e-06
0.466891
2.38466e-06
0.466889
2.48977e-06
0.466887
2.52735e-06
0.466885
2.4606e-06
0.466883
2.33868e-06
0.466881
2.25746e-06
0.466879
2.27179e-06
0.466876
2.34625e-06
0.466874
2.40304e-06
0.466872
2.38796e-06
0.46687
2.31315e-06
0.466868
2.23411e-06
0.466866
2.18412e-06
0.466865
2.14325e-06
0.466863
2.07532e-06
0.466861
1.98445e-06
0.466859
1.94425e-06
0.466857
2.00925e-06
0.466855
2.13569e-06
0.466853
2.21906e-06
0.466851
2.20887e-06
0.466849
2.16031e-06
0.466847
2.14856e-06
0.466845
2.16997e-06
0.466843
2.15218e-06
0.466841
2.09549e-06
0.466838
2.08041e-06
0.466836
2.15913e-06
0.466834
2.26364e-06
0.466832
2.29245e-06
0.46683
2.24299e-06
0.466828
2.22454e-06
0.466826
2.31768e-06
0.466823
2.45368e-06
0.466821
2.4841e-06
0.466818
2.38462e-06
0.466815
2.27391e-06
0.466813
2.31751e-06
0.466811
2.52902e-06
0.466808
2.73055e-06
0.466805
2.74597e-06
0.466803
2.5957e-06
0.466801
2.45427e-06
0.466798
2.44828e-06
0.466796
2.53257e-06
0.466793
2.54757e-06
0.466791
2.44117e-06
0.466788
2.28965e-06
0.466786
2.2249e-06
0.466783
2.28743e-06
0.466781
2.3793e-06
0.466779
2.39154e-06
0.466776
2.33561e-06
0.466774
2.30148e-06
0.466772
2.32756e-06
0.466769
2.3502e-06
0.466767
2.29404e-06
0.466764
2.15908e-06
0.466762
2.03586e-06
0.46676
2.01733e-06
0.466758
2.10419e-06
0.466755
2.21627e-06
0.466753
2.27205e-06
0.46675
2.24874e-06
0.466748
2.17911e-06
0.466746
2.10697e-06
0.466744
2.04962e-06
0.466742
1.99146e-06
0.466739
1.89812e-06
0.466737
1.75172e-06
0.466735
1.57817e-06
0.466733
1.43704e-06
0.466731
1.37672e-06
0.466729
1.39586e-06
0.466727
1.45044e-06
0.466725
1.49221e-06
0.466724
1.49978e-06
0.466722
1.47467e-06
0.46672
1.42452e-06
0.466718
1.35418e-06
0.466716
1.26947e-06
0.466715
1.17807e-06
0.466713
1.08295e-06
0.466711
9.72884e-07
0.46671
8.46565e-07
0.466708
7.16508e-07
0.466707
6.04743e-07
0.466706
5.26353e-07
0.466705
4.71972e-07
0.466704
4.05129e-07
0.466703
2.86557e-07
0.466702
1.04208e-07
0.466701
-9.21997e-08
0.4667
-2.33101e-07
0.4667
-2.94474e-07
0.466699
-3.37367e-07
0.466698
-4.48618e-07
0.466698
-6.40347e-07
0.466697
-8.07873e-07
0.466697
-8.27829e-07
0.466696
-6.92568e-07
0.466695
-5.16994e-07
0.466694
-4.43252e-07
0.466693
-5.01302e-07
0.466693
-5.91549e-07
0.466692
-6.12153e-07
0.466692
-5.4281e-07
0.466691
-4.60987e-07
-3.60842e-07
0.466618
-2.81303e-08
0.466619
1.48411e-07
0.46662
5.59357e-07
0.466621
1.43779e-06
0.466621
1.80879e-06
0.466621
2.02772e-06
0.466621
2.16545e-06
0.46662
2.55099e-06
0.46662
2.96126e-06
0.466619
2.73973e-06
0.466619
2.16147e-06
0.46662
1.6606e-06
0.466621
1.50109e-06
0.466622
1.81746e-06
0.466622
2.01953e-06
0.466623
1.90798e-06
0.466623
2.04141e-06
0.466624
2.04666e-06
0.466624
1.74694e-06
0.466626
1.75268e-06
0.466627
2.04462e-06
0.466627
2.05606e-06
0.466628
1.9566e-06
0.466629
1.9352e-06
0.466629
1.93044e-06
0.46663
1.98879e-06
0.466631
1.88839e-06
0.466632
1.84706e-06
0.466632
2.148e-06
0.466633
2.38942e-06
0.466632
2.42339e-06
0.466632
2.41594e-06
0.466632
2.48371e-06
0.466632
2.72803e-06
0.466631
2.91458e-06
0.466631
2.76623e-06
0.46663
2.59769e-06
0.46663
2.72675e-06
0.466629
2.83078e-06
0.466629
2.57401e-06
0.466629
2.21781e-06
0.466629
2.1523e-06
0.46663
2.27244e-06
0.46663
2.24673e-06
0.46663
2.04964e-06
0.46663
1.89427e-06
0.466631
1.88122e-06
0.466632
1.96051e-06
0.466632
2.05916e-06
0.466633
2.08291e-06
0.466633
1.96389e-06
0.466634
1.78657e-06
0.466635
1.71706e-06
0.466635
1.78371e-06
0.466636
1.87419e-06
0.466637
1.91158e-06
0.466638
1.9149e-06
0.466639
1.90427e-06
0.466639
1.87237e-06
0.46664
1.85334e-06
0.466641
1.91369e-06
0.466641
2.05335e-06
0.466642
2.19034e-06
0.466642
2.25351e-06
0.466642
2.24257e-06
0.466642
2.2065e-06
0.466642
2.20334e-06
0.466642
2.27194e-06
0.466642
2.39676e-06
0.466642
2.50165e-06
0.466641
2.51272e-06
0.466641
2.42952e-06
0.466641
2.31987e-06
0.466641
2.24796e-06
0.466641
2.22561e-06
0.466642
2.22819e-06
0.466642
2.22784e-06
0.466642
2.20198e-06
0.466643
2.13292e-06
0.466644
2.0254e-06
0.466645
1.92425e-06
0.466645
1.88828e-06
0.466646
1.93064e-06
0.466647
1.99115e-06
0.466647
1.98599e-06
0.466648
1.90243e-06
0.466649
1.83977e-06
0.466649
1.92048e-06
0.466649
2.14199e-06
0.46665
2.34484e-06
0.466649
2.37485e-06
0.466649
2.27054e-06
0.466649
2.22453e-06
0.466649
2.34763e-06
0.466649
2.5364e-06
0.466648
2.62239e-06
0.466648
2.59648e-06
0.466648
2.59121e-06
0.466647
2.66304e-06
0.466647
2.70479e-06
0.466646
2.61985e-06
0.466646
2.4844e-06
0.466646
2.44746e-06
0.466646
2.51803e-06
0.466645
2.55844e-06
0.466645
2.48465e-06
0.466644
2.37164e-06
0.466644
2.32928e-06
0.466644
2.35336e-06
0.466644
2.36713e-06
0.466643
2.36127e-06
0.466643
2.40386e-06
0.466643
2.51134e-06
0.466643
2.58693e-06
0.466643
2.52882e-06
0.466643
2.35948e-06
0.466643
2.20713e-06
0.466643
2.17767e-06
0.466643
2.27007e-06
0.466643
2.39501e-06
0.466642
2.44709e-06
0.466642
2.37518e-06
0.466643
2.22577e-06
0.466643
2.11974e-06
0.466643
2.14105e-06
0.466644
2.23873e-06
0.466644
2.27717e-06
0.466644
2.1908e-06
0.466644
2.05861e-06
0.466645
2.00538e-06
0.466645
2.05546e-06
0.466645
2.12433e-06
0.466646
2.14065e-06
0.466646
2.12408e-06
0.466646
2.13641e-06
0.466646
2.19601e-06
0.466646
2.26085e-06
0.466646
2.28316e-06
0.466646
2.2533e-06
0.466646
2.1929e-06
0.466647
2.13551e-06
0.466647
2.11497e-06
0.466647
2.14576e-06
0.466648
2.2025e-06
0.466648
2.23188e-06
0.466648
2.20446e-06
0.466648
2.15466e-06
0.466648
2.15656e-06
0.466648
2.25088e-06
0.466648
2.39915e-06
0.466648
2.50761e-06
0.466648
2.50185e-06
0.466648
2.38794e-06
0.466648
2.24435e-06
0.466648
2.1488e-06
0.466648
2.11322e-06
0.466648
2.09699e-06
0.466647
2.07922e-06
0.466647
2.08999e-06
0.466647
2.15511e-06
0.466647
2.23002e-06
0.466647
2.2287e-06
0.466647
2.12292e-06
0.466647
1.9802e-06
0.466648
1.88184e-06
0.466648
1.8253e-06
0.466648
1.74968e-06
0.466649
1.63985e-06
0.466649
1.55952e-06
0.46665
1.55351e-06
0.466651
1.56234e-06
0.466652
1.48186e-06
0.466653
1.30084e-06
0.466654
1.13799e-06
0.466655
1.11192e-06
0.466656
1.1995e-06
0.466658
1.26939e-06
0.466659
1.23653e-06
0.46666
1.16757e-06
0.466661
1.21028e-06
0.466662
1.41435e-06
0.466663
1.65975e-06
0.466664
1.78015e-06
0.466665
1.73256e-06
0.466666
1.62999e-06
0.466667
1.61227e-06
0.466668
1.70074e-06
0.466668
1.80279e-06
0.466669
1.83178e-06
0.466669
1.80546e-06
0.46667
1.81141e-06
0.46667
1.88282e-06
0.466671
1.94865e-06
0.466671
1.91763e-06
0.466671
1.78581e-06
0.466672
1.63628e-06
0.466673
1.54041e-06
0.466674
1.48787e-06
0.466674
1.41839e-06
0.466675
1.30849e-06
0.466676
1.20567e-06
0.466677
1.17708e-06
0.466678
1.24033e-06
0.466679
1.34837e-06
0.46668
1.42962e-06
0.46668
1.43489e-06
0.466681
1.35989e-06
0.466682
1.23767e-06
0.466683
1.11112e-06
0.466684
1.00146e-06
0.466685
8.97422e-07
0.466685
7.76368e-07
0.466686
6.38846e-07
0.466687
5.17723e-07
0.466688
4.48544e-07
0.466689
4.35926e-07
0.46669
4.49161e-07
0.466691
4.4858e-07
0.466692
4.12838e-07
0.466693
3.42063e-07
0.466694
2.47777e-07
0.466696
1.48016e-07
0.466697
6.56822e-08
0.466698
3.47228e-08
0.466699
4.80298e-08
0.466699
1.05857e-07
0.4667
1.82424e-07
0.4667
2.58087e-07
0.4667
3.34568e-07
0.4667
4.26095e-07
0.4667
5.37709e-07
0.4667
6.42552e-07
0.466699
6.85732e-07
0.466699
6.32029e-07
0.466698
5.13007e-07
0.466697
4.19178e-07
0.466696
4.15545e-07
0.466696
4.70533e-07
0.466694
4.79033e-07
0.466693
3.76379e-07
0.466692
2.12498e-07
0.466691
1.06176e-07
0.466691
1.33985e-07
0.46669
2.45923e-07
0.466689
3.30736e-07
0.466688
3.26849e-07
0.466687
2.68017e-07
0.466687
2.06576e-07
0.466686
2.68386e-07
1.0973e-07
0.466619
4.09316e-07
0.466618
1.04178e-06
0.466617
1.23175e-06
0.466618
1.00475e-06
0.466619
9.36647e-07
0.466619
1.20028e-06
0.46662
1.42515e-06
0.466621
1.31665e-06
0.466623
1.20479e-06
0.466625
1.42887e-06
0.466625
1.91357e-06
0.466624
2.40334e-06
0.466623
2.38777e-06
0.466623
2.04092e-06
0.466623
1.93561e-06
0.466623
1.95804e-06
0.466623
2.08723e-06
0.466623
2.06702e-06
0.466623
1.90877e-06
0.466623
1.90415e-06
0.466623
2.03156e-06
0.466623
1.89947e-06
0.466623
1.6741e-06
0.466623
1.84489e-06
0.466623
1.99749e-06
0.466623
2.05123e-06
0.466623
2.32697e-06
0.466622
2.47993e-06
0.466622
2.4752e-06
0.466621
2.58333e-06
0.466621
2.63508e-06
0.466621
2.45811e-06
0.466621
2.21664e-06
0.466622
2.11945e-06
0.466623
2.12579e-06
0.466624
2.02518e-06
0.466624
1.77706e-06
0.466625
1.59925e-06
0.466627
1.65887e-06
0.466627
1.80462e-06
0.466628
1.80924e-06
0.466628
1.73161e-06
0.466629
1.78873e-06
0.466629
1.98523e-06
0.466629
2.12916e-06
0.466629
2.11507e-06
0.466629
1.98357e-06
0.466629
1.83061e-06
0.466629
1.74431e-06
0.466629
1.74603e-06
0.46663
1.79227e-06
0.46663
1.83922e-06
0.466629
1.89682e-06
0.466629
1.96436e-06
0.466629
2.01906e-06
0.466629
2.04625e-06
0.466629
2.0702e-06
0.466629
2.09602e-06
0.466628
2.10273e-06
0.466628
2.10342e-06
0.466628
2.1325e-06
0.466628
2.16061e-06
0.466628
2.10948e-06
0.466628
1.97693e-06
0.466628
1.86623e-06
0.466629
1.84534e-06
0.466629
1.8557e-06
0.46663
1.80625e-06
0.46663
1.71237e-06
0.466631
1.68114e-06
0.466632
1.76835e-06
0.466632
1.90597e-06
0.466633
1.97996e-06
0.466633
1.94998e-06
0.466633
1.87567e-06
0.466634
1.84062e-06
0.466634
1.87007e-06
0.466634
1.92006e-06
0.466635
1.93388e-06
0.466635
1.8996e-06
0.466635
1.85361e-06
0.466635
1.83963e-06
0.466635
1.87105e-06
0.466635
1.92513e-06
0.466635
1.96e-06
0.466635
1.93812e-06
0.466635
1.85876e-06
0.466635
1.77744e-06
0.466635
1.76314e-06
0.466636
1.80803e-06
0.466637
1.80954e-06
0.466637
1.69029e-06
0.466638
1.51733e-06
0.466639
1.44276e-06
0.46664
1.51036e-06
0.466641
1.59255e-06
0.466642
1.5627e-06
0.466643
1.46906e-06
0.466644
1.4658e-06
0.466645
1.58761e-06
0.466646
1.699e-06
0.466647
1.68876e-06
0.466648
1.62096e-06
0.466649
1.63108e-06
0.46665
1.73144e-06
0.46665
1.8071e-06
0.466651
1.7871e-06
0.466651
1.73355e-06
0.466652
1.74136e-06
0.466653
1.81723e-06
0.466653
1.90087e-06
0.466653
1.96152e-06
0.466654
2.01368e-06
0.466655
2.05344e-06
0.466655
2.04229e-06
0.466655
1.97131e-06
0.466656
1.90061e-06
0.466656
1.90758e-06
0.466656
2.01203e-06
0.466656
2.16403e-06
0.466657
2.28312e-06
0.466657
2.29836e-06
0.466657
2.1884e-06
0.466657
2.01848e-06
0.466657
1.91352e-06
0.466657
1.94834e-06
0.466658
2.05856e-06
0.466658
2.0951e-06
0.466658
1.98211e-06
0.466658
1.79529e-06
0.466658
1.67494e-06
0.466659
1.68751e-06
0.466659
1.78934e-06
0.466659
1.89967e-06
0.46666
1.9719e-06
0.46666
1.99916e-06
0.46666
1.9895e-06
0.46666
1.96029e-06
0.466661
1.93857e-06
0.466661
1.93893e-06
0.466661
1.94387e-06
0.466661
1.92294e-06
0.466662
1.8713e-06
0.466662
1.81655e-06
0.466662
1.78617e-06
0.466663
1.7808e-06
0.466663
1.78503e-06
0.466664
1.79555e-06
0.466664
1.82681e-06
0.466664
1.88743e-06
0.466665
1.95309e-06
0.466666
1.96917e-06
0.466666
1.89497e-06
0.466667
1.75409e-06
0.466667
1.63165e-06
0.466668
1.60604e-06
0.466668
1.67972e-06
0.466668
1.78677e-06
0.466668
1.87138e-06
0.466669
1.9371e-06
0.466669
2.00551e-06
0.466669
2.05253e-06
0.466669
2.02381e-06
0.466669
1.91696e-06
0.466669
1.80976e-06
0.466669
1.77816e-06
0.466669
1.8076e-06
0.466669
1.82047e-06
0.466669
1.78516e-06
0.466669
1.75544e-06
0.466668
1.78646e-06
0.466668
1.84314e-06
0.466668
1.83015e-06
0.466667
1.71679e-06
0.466667
1.5941e-06
0.466666
1.58382e-06
0.466666
1.70651e-06
0.466665
1.85856e-06
0.466664
1.92805e-06
0.466664
1.91505e-06
0.466663
1.91194e-06
0.466663
1.98097e-06
0.466663
2.07674e-06
0.466662
2.09591e-06
0.466662
1.99607e-06
0.466662
1.8477e-06
0.466661
1.76324e-06
0.466661
1.78733e-06
0.466661
1.86565e-06
0.466661
1.92314e-06
0.466661
1.9524e-06
0.466661
2.00108e-06
0.466661
2.08624e-06
0.466661
2.15207e-06
0.46666
2.12723e-06
0.46666
2.00834e-06
0.46666
1.86722e-06
0.466659
1.77981e-06
0.466659
1.76146e-06
0.466659
1.77458e-06
0.466658
1.78558e-06
0.466657
1.79853e-06
0.466657
1.83721e-06
0.466656
1.91095e-06
0.466656
2.00066e-06
0.466655
2.06823e-06
0.466654
2.07706e-06
0.466654
2.01371e-06
0.466653
1.90045e-06
0.466652
1.78717e-06
0.466651
1.71909e-06
0.46665
1.71086e-06
0.466649
1.74641e-06
0.466648
1.80494e-06
0.466646
1.88161e-06
0.466645
1.97628e-06
0.466643
2.07674e-06
0.466641
2.15565e-06
0.46664
2.18528e-06
0.466638
2.15108e-06
0.466636
2.05177e-06
0.466634
1.89297e-06
0.466633
1.68735e-06
0.466631
1.45981e-06
0.46663
1.2357e-06
0.466629
1.0378e-06
0.466628
8.65728e-07
0.466628
6.98741e-07
0.466628
5.12007e-07
0.466628
2.94453e-07
0.466628
6.61764e-08
0.466629
-1.40656e-07
0.46663
-3.17869e-07
0.466631
-5.00578e-07
0.466633
-7.37087e-07
0.466634
-1.02288e-06
0.466636
-1.27989e-06
0.466638
-1.42152e-06
0.46664
-1.43848e-06
0.466641
-1.41195e-06
0.466643
-1.43249e-06
0.466645
-1.51011e-06
0.466646
-1.57409e-06
0.466648
-1.55985e-06
0.46665
-1.47627e-06
0.466652
-1.38096e-06
0.466653
-1.33528e-06
0.466655
-1.32907e-06
0.466657
-1.47612e-06
-1.42503e-06
0.466621
-1.26697e-07
0.466622
4.79546e-07
0.466622
1.24112e-06
0.466621
1.76041e-06
0.466621
1.48816e-06
0.466621
1.01039e-06
0.466621
1.53006e-06
0.46662
1.89267e-06
0.466619
2.0699e-06
0.466618
2.15047e-06
0.466618
1.88227e-06
0.466619
1.71408e-06
0.46662
1.92172e-06
0.46662
2.09528e-06
0.466619
2.11115e-06
0.46662
1.77992e-06
0.46662
1.56881e-06
0.46662
1.79956e-06
0.46662
1.87709e-06
0.466621
1.69542e-06
0.466621
1.70977e-06
0.466621
1.94488e-06
0.466621
1.9978e-06
0.466621
1.85757e-06
0.466621
1.82062e-06
0.466621
1.76939e-06
0.466622
1.66727e-06
0.466623
1.58179e-06
0.466624
1.41829e-06
0.466625
1.27746e-06
0.466626
1.34002e-06
0.466627
1.47464e-06
0.466628
1.40415e-06
0.466629
1.26448e-06
0.46663
1.46911e-06
0.46663
1.90726e-06
0.466629
2.08243e-06
0.466629
1.94664e-06
0.466629
1.93005e-06
0.466628
2.13175e-06
0.466628
2.21979e-06
0.466628
2.07593e-06
0.466627
1.94274e-06
0.466628
1.95505e-06
0.466628
1.99562e-06
0.466628
1.98232e-06
0.466628
1.94343e-06
0.466628
1.87119e-06
0.466628
1.7668e-06
0.466628
1.72209e-06
0.466628
1.78387e-06
0.466628
1.83262e-06
0.466628
1.7488e-06
0.466628
1.59706e-06
0.466629
1.51525e-06
0.466629
1.52855e-06
0.46663
1.56945e-06
0.46663
1.60214e-06
0.466631
1.64972e-06
0.466631
1.7214e-06
0.466632
1.77295e-06
0.466632
1.75137e-06
0.466632
1.6626e-06
0.466633
1.59203e-06
0.466633
1.64299e-06
0.466633
1.81722e-06
0.466633
1.98535e-06
0.466633
2.0056e-06
0.466633
1.87413e-06
0.466632
1.72431e-06
0.466633
1.67811e-06
0.466633
1.73758e-06
0.466633
1.82044e-06
0.466633
1.86353e-06
0.466633
1.86606e-06
0.466633
1.8507e-06
0.466633
1.82208e-06
0.466633
1.77289e-06
0.466633
1.71277e-06
0.466634
1.66854e-06
0.466634
1.64939e-06
0.466634
1.6245e-06
0.466634
1.55038e-06
0.466635
1.42849e-06
0.466636
1.31948e-06
0.466636
1.27612e-06
0.466637
1.27247e-06
0.466637
1.23248e-06
0.466638
1.13342e-06
0.466639
1.03831e-06
0.46664
1.00338e-06
0.46664
9.97336e-07
0.466641
9.57252e-07
0.466641
9.00253e-07
0.466642
9.06556e-07
0.466643
9.88124e-07
0.466643
1.04528e-06
0.466644
9.9903e-07
0.466644
9.15589e-07
0.466645
9.23001e-07
0.466645
1.03692e-06
0.466646
1.14644e-06
0.466646
1.1769e-06
0.466647
1.18789e-06
0.466647
1.26791e-06
0.466648
1.39869e-06
0.466648
1.48979e-06
0.466648
1.52109e-06
0.466648
1.57724e-06
0.466648
1.72875e-06
0.466648
1.93277e-06
0.466648
2.08165e-06
0.466648
2.11769e-06
0.466648
2.06821e-06
0.466648
1.99248e-06
0.466648
1.93446e-06
0.466648
1.91859e-06
0.466648
1.94782e-06
0.466648
1.99262e-06
0.466648
2.00955e-06
0.466649
1.98407e-06
0.466649
1.93519e-06
0.466649
1.87642e-06
0.46665
1.80275e-06
0.46665
1.72835e-06
0.46665
1.70454e-06
0.46665
1.76108e-06
0.466651
1.84442e-06
0.466651
1.85883e-06
0.466651
1.77418e-06
0.466651
1.66741e-06
0.466651
1.64454e-06
0.466651
1.73723e-06
0.466651
1.88585e-06
0.466651
2.00696e-06
0.466651
2.05553e-06
0.466651
2.03324e-06
0.466651
1.97107e-06
0.466651
1.91377e-06
0.466651
1.89703e-06
0.466651
1.91708e-06
0.466651
1.92648e-06
0.466651
1.87615e-06
0.466651
1.76525e-06
0.466651
1.6448e-06
0.466651
1.57261e-06
0.466651
1.56665e-06
0.466652
1.59785e-06
0.466652
1.62045e-06
0.466652
1.60725e-06
0.466652
1.55961e-06
0.466653
1.48694e-06
0.466653
1.38607e-06
0.466654
1.25325e-06
0.466654
1.1175e-06
0.466655
1.04421e-06
0.466656
1.08255e-06
0.466656
1.20721e-06
0.466657
1.33351e-06
0.466657
1.3982e-06
0.466658
1.40984e-06
0.466659
1.40955e-06
0.466659
1.40282e-06
0.46666
1.36318e-06
0.46666
1.29858e-06
0.466661
1.27332e-06
0.466661
1.33826e-06
0.466662
1.45753e-06
0.466662
1.53955e-06
0.466662
1.54163e-06
0.466662
1.51419e-06
0.466663
1.52596e-06
0.466663
1.56809e-06
0.466663
1.56591e-06
0.466663
1.48227e-06
0.466663
1.38023e-06
0.466664
1.36512e-06
0.466664
1.46748e-06
0.466664
1.60481e-06
0.466665
1.66594e-06
0.466665
1.61723e-06
0.466665
1.51935e-06
0.466666
1.44619e-06
0.466667
1.4025e-06
0.466667
1.33445e-06
0.466668
1.21253e-06
0.466669
1.08494e-06
0.466669
1.0372e-06
0.46667
1.10016e-06
0.466671
1.21795e-06
0.466672
1.3107e-06
0.466672
1.35269e-06
0.466673
1.37508e-06
0.466674
1.39899e-06
0.466674
1.39311e-06
0.466675
1.30892e-06
0.466676
1.14499e-06
0.466677
9.61031e-07
0.466678
8.27282e-07
0.466679
7.69495e-07
0.46668
7.64512e-07
0.466681
7.74891e-07
0.466682
7.76459e-07
0.466683
7.60801e-07
0.466684
7.26595e-07
0.466685
6.71413e-07
0.466687
5.87377e-07
0.466689
4.64004e-07
0.46669
2.99199e-07
0.466692
1.17744e-07
0.466694
-3.60938e-08
0.466695
-1.09926e-07
0.466697
-8.32518e-08
0.466699
2.66887e-08
0.466701
1.98716e-07
0.466702
4.05917e-07
0.466704
6.26313e-07
0.466705
8.36481e-07
0.466706
1.01426e-06
0.466707
1.14771e-06
0.466708
1.23799e-06
0.466709
1.29122e-06
0.466709
1.31072e-06
0.466709
1.29925e-06
0.466709
1.26329e-06
0.466709
1.21727e-06
0.466709
1.17352e-06
0.466708
1.1332e-06
0.466708
1.07984e-06
0.466707
9.8369e-07
0.466706
8.24893e-07
0.466705
6.17999e-07
0.466705
4.09454e-07
0.466704
2.38432e-07
0.466703
9.23859e-08
0.466702
-7.64294e-08
0.466701
-2.8275e-07
0.4667
-4.79207e-07
0.466699
-5.85908e-07
0.466699
-5.73516e-07
0.466698
-4.9457e-07
0.466697
-4.28198e-07
0.466695
-4.05416e-07
0.466694
-3.96834e-07
0.466693
-3.63371e-07
0.466692
-3.05971e-07
0.466691
-2.5597e-07
0.46669
-2.50787e-07
0.466689
-2.32242e-07
-4.91647e-07
0.466619
-3.2799e-07
0.46662
-1.70105e-07
0.466621
3.54226e-07
0.466622
7.43117e-07
0.466622
1.16507e-06
0.466622
1.26283e-06
0.466622
1.19059e-06
0.466623
1.4043e-06
0.466623
1.3358e-06
0.466624
1.13451e-06
0.466625
1.13266e-06
0.466626
1.20341e-06
0.466626
1.12087e-06
0.466627
9.71248e-07
0.466628
1.16266e-06
0.466629
1.52105e-06
0.466629
1.41954e-06
0.466629
1.35897e-06
0.46663
1.39479e-06
0.46663
1.28062e-06
0.466631
1.35992e-06
0.466631
1.59601e-06
0.466631
1.81977e-06
0.466631
1.94519e-06
0.466631
1.84914e-06
0.466631
1.7248e-06
0.466631
1.81654e-06
0.46663
1.91199e-06
0.46663
1.8101e-06
0.46663
1.75298e-06
0.466629
1.87168e-06
0.466629
2.01629e-06
0.466628
1.9889e-06
0.466627
1.73695e-06
0.466627
1.50883e-06
0.466628
1.53128e-06
0.466628
1.64703e-06
0.466629
1.59092e-06
0.466629
1.42349e-06
0.46663
1.35863e-06
0.466631
1.39481e-06
0.466631
1.37999e-06
0.466632
1.28625e-06
0.466633
1.19594e-06
0.466634
1.14748e-06
0.466635
1.12689e-06
0.466635
1.11823e-06
0.466636
1.10904e-06
0.466637
1.1082e-06
0.466637
1.17201e-06
0.466638
1.30673e-06
0.466638
1.38967e-06
0.466639
1.34576e-06
0.466639
1.26778e-06
0.466639
1.27001e-06
0.466639
1.32207e-06
0.46664
1.33043e-06
0.46664
1.31294e-06
0.46664
1.35212e-06
0.466641
1.43132e-06
0.466641
1.44315e-06
0.466641
1.35866e-06
0.466642
1.27314e-06
0.466642
1.27612e-06
0.466642
1.35635e-06
0.466643
1.44287e-06
0.466643
1.49545e-06
0.466644
1.52247e-06
0.466644
1.54055e-06
0.466644
1.55013e-06
0.466644
1.54536e-06
0.466644
1.53232e-06
0.466645
1.53077e-06
0.466645
1.55112e-06
0.466645
1.57458e-06
0.466646
1.56379e-06
0.466646
1.50148e-06
0.466646
1.4164e-06
0.466647
1.36481e-06
0.466647
1.38518e-06
0.466647
1.46562e-06
0.466647
1.54884e-06
0.466647
1.57165e-06
0.466647
1.51637e-06
0.466647
1.43768e-06
0.466647
1.42425e-06
0.466647
1.50394e-06
0.466646
1.59872e-06
0.466646
1.60669e-06
0.466645
1.52422e-06
0.466645
1.44943e-06
0.466644
1.45165e-06
0.466644
1.48207e-06
0.466643
1.45624e-06
0.466643
1.38556e-06
0.466642
1.36389e-06
0.466642
1.42128e-06
0.466642
1.46737e-06
0.466641
1.41761e-06
0.466641
1.31518e-06
0.46664
1.27251e-06
0.46664
1.32019e-06
0.46664
1.38189e-06
0.46664
1.39347e-06
0.46664
1.37688e-06
0.46664
1.37718e-06
0.46664
1.38475e-06
0.46664
1.369e-06
0.46664
1.35586e-06
0.466641
1.41088e-06
0.466641
1.54108e-06
0.466641
1.66059e-06
0.466642
1.67738e-06
0.466642
1.59046e-06
0.466643
1.48397e-06
0.466643
1.44431e-06
0.466644
1.49955e-06
0.466644
1.61504e-06
0.466644
1.7153e-06
0.466645
1.72541e-06
0.466645
1.63043e-06
0.466645
1.49981e-06
0.466646
1.42829e-06
0.466646
1.44277e-06
0.466646
1.4845e-06
0.466647
1.48905e-06
0.466647
1.45457e-06
0.466647
1.41785e-06
0.466648
1.39231e-06
0.466648
1.3614e-06
0.466649
1.32584e-06
0.466649
1.32215e-06
0.466649
1.3804e-06
0.46665
1.48132e-06
0.46665
1.57224e-06
0.466651
1.6169e-06
0.466651
1.61748e-06
0.466651
1.59799e-06
0.466652
1.5842e-06
0.466652
1.5968e-06
0.466652
1.64259e-06
0.466653
1.70104e-06
0.466653
1.73125e-06