/*--------------------------------*- C++ -*----------------------------------*\
| =========                 |                                                 |
| \\      /  F ield         | OpenFOAM: The Open Source CFD Toolbox           |
|  \\    /   O peration     | Version:  2406                                  |
|   \\  /    A nd           | Website:  www.openfoam.com                      |
|    \\/     M anipulation  |                                                 |
\*---------------------------------------------------------------------------*/
FoamFile
{
    version     2.0;
    format      ascii;
    arch        "LSB;label=32;scalar=64";
    class       surfaceScalarField;
    location    "0.55";
    object      phi;
}
// * * * * * * * * * * * * * * * * * * * * * * * * * * * * * * * * * * * * * //

dimensions      [0 3 -1 0 0 0 0];

oriented        oriented;

internalField   nonuniform List<scalar> 
12225
(
0.466942
2.4218e-06
0.466935
7.02463e-06
0.466927
8.09162e-06
0.466921
6.14745e-06
0.466915
5.61208e-06
0.466909
5.92485e-06
0.466903
6.24167e-06
0.466897
5.81295e-06
0.466893
4.80938e-06
0.466888
4.92804e-06
0.466882
5.33019e-06
0.466877
5.51225e-06
0.466871
5.69985e-06
0.466865
5.91959e-06
0.466859
6.17487e-06
0.466853
6.31403e-06
0.466847
6.1642e-06
0.466841
5.94179e-06
0.466835
5.77386e-06
0.466829
5.44776e-06
0.466824
5.21726e-06
0.466819
5.41621e-06
0.466813
5.70361e-06
0.466807
5.73139e-06
0.466802
5.71586e-06
0.466796
5.74761e-06
0.46679
5.53851e-06
0.466785
5.13841e-06
0.46678
4.87864e-06
0.466776
4.72077e-06
0.466771
4.68324e-06
0.466766
4.85569e-06
0.466761
5.07108e-06
0.466756
5.23098e-06
0.46675
5.39789e-06
0.466745
5.62764e-06
0.466739
5.82536e-06
0.466733
5.74192e-06
0.466728
5.39593e-06
0.466723
5.16462e-06
0.466717
5.2226e-06
0.466712
5.24979e-06
0.466707
5.03893e-06
0.466702
4.82451e-06
0.466697
4.80219e-06
0.466693
4.81861e-06
0.466688
4.70214e-06
0.466683
4.52364e-06
0.466679
4.43205e-06
0.466674
4.45835e-06
0.46667
4.54786e-06
0.466665
4.59051e-06
0.466661
4.45881e-06
0.466657
4.17717e-06
0.466653
3.92831e-06
0.466649
3.8468e-06
0.466645
3.89341e-06
0.466641
3.97653e-06
0.466637
4.07784e-06
0.466633
4.21417e-06
0.466628
4.34903e-06
0.466624
4.43657e-06
0.466619
4.5034e-06
0.466615
4.5984e-06
0.46661
4.70371e-06
0.466605
4.76157e-06
0.466601
4.76953e-06
0.466596
4.7927e-06
0.466591
4.86782e-06
0.466586
4.94452e-06
0.466581
4.95324e-06
0.466576
4.91053e-06
0.466571
4.90923e-06
0.466566
4.99808e-06
0.466561
5.11257e-06
0.466556
5.16765e-06
0.466551
5.18394e-06
0.466546
5.2633e-06
0.46654
5.44723e-06
0.466534
5.64536e-06
0.466529
5.72731e-06
0.466523
5.66704e-06
0.466517
5.57226e-06
0.466512
5.56768e-06
0.466506
5.66125e-06
0.466501
5.72765e-06
0.466495
5.63989e-06
0.466489
5.4169e-06
0.466484
5.21831e-06
0.466479
5.17983e-06
0.466474
5.27828e-06
0.466468
5.36061e-06
0.466463
5.32265e-06
0.466458
5.20591e-06
0.466453
5.12912e-06
0.466448
5.14528e-06
0.466442
5.20143e-06
0.466437
5.22858e-06
0.466432
5.22114e-06
0.466427
5.20922e-06
0.466422
5.18227e-06
0.466416
5.0898e-06
0.466412
4.92045e-06
0.466407
4.74774e-06
0.466402
4.65473e-06
0.466398
4.63484e-06
0.466393
4.58863e-06
0.466389
4.42798e-06
0.466384
4.17351e-06
0.46638
3.92442e-06
0.466377
3.74511e-06
0.466373
3.60688e-06
0.46637
3.44405e-06
0.466366
3.24266e-06
0.466363
3.04391e-06
0.46636
2.86274e-06
0.466358
2.65294e-06
0.466355
2.37157e-06
0.466353
2.04873e-06
0.466352
1.77958e-06
0.46635
1.63658e-06
0.466348
1.57806e-06
0.466347
1.49036e-06
0.466346
1.32008e-06
0.466344
1.10936e-06
0.466344
9.36791e-07
0.466343
8.52301e-07
0.466342
8.38618e-07
0.466341
8.27542e-07
0.46634
7.68958e-07
0.46634
6.48776e-07
0.466339
5.02676e-07
0.466339
4.14294e-07
0.466338
4.43501e-07
0.466338
5.3525e-07
0.466337
5.9131e-07
0.466337
5.43604e-07
0.466336
4.12229e-07
0.466336
2.8646e-07
0.466336
2.40581e-07
0.466335
2.75776e-07
0.466335
3.53225e-07
0.466335
4.32687e-07
0.466334
4.74675e-07
0.466334
4.40251e-07
0.466333
3.18239e-07
0.466333
1.56354e-07
0.466333
3.1436e-08
0.466333
5.28432e-09
0.466333
7.91557e-08
0.466333
2.36561e-07
0.466332
3.82123e-07
0.466332
4.33744e-07
0.466332
3.72311e-07
0.466331
2.49028e-07
0.466331
1.64823e-07
0.466331
1.09543e-07
0.466331
4.63453e-08
0.466331
9.9671e-09
0.466331
6.62303e-08
0.466331
2.28365e-07
0.46633
4.00664e-07
0.46633
4.28293e-07
0.46633
2.5209e-07
0.46633
5.42259e-09
0.46633
-1.26151e-07
0.46633
-1.32324e-07
0.46633
-6.28934e-08
0.46633
-2.16439e-08
0.46633
-1.79428e-08
0.46633
5.67131e-08
0.46633
1.81659e-07
0.46633
2.59687e-07
0.466329
2.01423e-07
0.466329
6.30635e-08
0.466329
-9.72413e-08
0.46633
-1.92885e-07
0.46633
-1.85078e-07
0.46633
-1.0513e-07
0.46633
2.16583e-08
0.46633
9.4263e-08
0.46633
1.42194e-07
0.466329
1.78508e-07
0.466329
1.86225e-07
0.466329
1.29417e-07
0.466329
3.80896e-08
0.466329
-3.18408e-08
0.466329
-1.1941e-07
0.466329
-1.80509e-07
0.46633
-2.0822e-07
0.46633
-1.67937e-07
0.46633
-6.55043e-08
0.46633
3.23496e-08
0.46633
7.08095e-08
0.46633
3.67896e-08
0.46633
-3.30822e-08
0.46633
-8.66637e-08
0.46633
-1.28881e-07
0.46633
-1.72842e-07
0.46633
-2.1763e-07
0.466331
-2.28564e-07
0.466331
-1.87421e-07
0.466331
-1.31502e-07
0.466331
-1.13519e-07
0.466331
-1.37188e-07
0.466331
-1.5519e-07
0.466331
-1.34904e-07
0.466332
-1.07866e-07
0.466332
-1.38108e-07
0.466332
-2.49408e-07
0.466332
-3.91911e-07
0.466333
-4.86396e-07
0.466333
-5.01649e-07
0.466334
-4.77672e-07
0.466334
-4.68331e-07
0.466335
-4.78079e-07
0.466335
-4.6693e-07
0.466336
-4.13249e-07
0.466336
-3.56536e-07
0.466336
-3.53304e-07
0.466337
-4.07986e-07
0.466337
-4.66998e-07
0.466338
-4.90316e-07
0.466338
-5.09776e-07
0.466339
-5.89739e-07
0.46634
-7.30267e-07
0.46634
-8.41684e-07
0.466341
-8.3383e-07
0.466342
-7.18439e-07
0.466343
-6.02469e-07
0.466343
-5.74706e-07
0.466344
-6.25479e-07
0.466344
-6.83005e-07
0.466345
-7.10126e-07
0.466346
-7.42991e-07
0.466347
-8.34516e-07
0.466348
-9.89866e-07
0.466349
-1.15675e-06
0.46635
-1.27874e-06
0.466351
-1.33573e-06
0.466353
-1.3471e-06
0.466354
-1.34107e-06
0.466355
-1.34071e-06
0.466357
-1.35557e-06
0.466358
-1.37004e-06
0.46636
-1.3531e-06
0.466361
-1.27297e-06
0.466362
-1.116e-06
0.466363
-9.61252e-07
-6.25319e-07
0.46695
-5.59344e-07
0.466957
3.03052e-07
0.466963
1.73062e-06
0.466967
2.23093e-06
0.466971
2.00952e-06
0.466975
1.93724e-06
0.466979
1.95145e-06
0.466983
2.34872e-06
0.466985
2.44995e-06
0.466988
2.00479e-06
0.466991
2.0221e-06
0.466994
2.52247e-06
0.466997
2.68132e-06
0.467001
2.46009e-06
0.467005
2.35356e-06
0.467008
2.49688e-06
0.467012
2.62364e-06
0.467015
2.59098e-06
0.467018
2.8028e-06
0.467021
3.10467e-06
0.467023
2.85221e-06
0.467026
2.41517e-06
0.467029
2.43299e-06
0.467032
2.61395e-06
0.467035
2.65716e-06
0.467039
2.62228e-06
0.467041
2.75688e-06
0.467044
2.89413e-06
0.467046
2.8564e-06
0.467048
2.67845e-06
0.46705
2.39186e-06
0.467053
2.23191e-06
0.467055
2.37741e-06
0.467058
2.53561e-06
0.467061
2.3721e-06
0.467065
2.08757e-06
0.467068
2.09301e-06
0.467072
2.33692e-06
0.467075
2.39534e-06
0.467078
2.18976e-06
0.467081
2.11253e-06
0.467084
2.38103e-06
0.467086
2.65786e-06
0.467088
2.5733e-06
0.467091
2.28103e-06
0.467093
2.18163e-06
0.467096
2.35288e-06
0.467098
2.55148e-06
0.4671
2.59949e-06
0.467101
2.54521e-06
0.467104
2.49902e-06
0.467106
2.48768e-06
0.467108
2.47409e-06
0.467109
2.47046e-06
0.467111
2.54669e-06
0.467112
2.69868e-06
0.467113
2.80489e-06
0.467114
2.75967e-06
0.467116
2.62444e-06
0.467117
2.53988e-06
0.467119
2.54888e-06
0.467121
2.58037e-06
0.467123
2.5704e-06
0.467125
2.51917e-06
0.467127
2.43175e-06
0.46713
2.30562e-06
0.467132
2.19068e-06
0.467135
2.17755e-06
0.467137
2.27983e-06
0.46714
2.38509e-06
0.467143
2.37512e-06
0.467145
2.26121e-06
0.467148
2.17044e-06
0.467151
2.2056e-06
0.467154
2.34248e-06
0.467156
2.48162e-06
0.467159
2.56483e-06
0.467161
2.60975e-06
0.467164
2.6505e-06
0.467167
2.6882e-06
0.46717
2.71162e-06
0.467173
2.72804e-06
0.467176
2.74221e-06
0.467179
2.72904e-06
0.467182
2.66299e-06
0.467185
2.56267e-06
0.467188
2.48289e-06
0.467191
2.45702e-06
0.467194
2.45843e-06
0.467197
2.42855e-06
0.4672
2.33356e-06
0.467203
2.20423e-06
0.467206
2.10955e-06
0.467209
2.09792e-06
0.467212
2.1599e-06
0.467215
2.24348e-06
0.467218
2.29611e-06
0.467221
2.29542e-06
0.467224
2.25456e-06
0.467227
2.21332e-06
0.46723
2.21091e-06
0.467233
2.24993e-06
0.467235
2.28003e-06
0.467238
2.24687e-06
0.46724
2.16186e-06
0.467243
2.10149e-06
0.467245
2.11816e-06
0.467247
2.16473e-06
0.467249
2.14887e-06
0.467251
2.0633e-06
0.467253
2.01896e-06
0.467255
2.11901e-06
0.467256
2.32135e-06
0.467256
2.46357e-06
0.467257
2.43377e-06
0.467258
2.28593e-06
0.467258
2.16656e-06
0.467258
2.1601e-06
0.467258
2.23208e-06
0.467258
2.30123e-06
0.467257
2.33037e-06
0.467256
2.33453e-06
0.467255
2.33839e-06
0.467254
2.35842e-06
0.467253
2.40046e-06
0.467252
2.45007e-06
0.46725
2.47863e-06
0.467248
2.47232e-06
0.467247
2.45099e-06
0.467245
2.45016e-06
0.467243
2.46693e-06
0.467241
2.44992e-06
0.467239
2.37196e-06
0.467237
2.28237e-06
0.467236
2.25419e-06
0.467234
2.30811e-06
0.467232
2.38459e-06
0.46723
2.40848e-06
0.467228
2.37046e-06
0.467226
2.32376e-06
0.467224
2.31615e-06
0.467222
2.35219e-06
0.46722
2.40564e-06
0.467218
2.44504e-06
0.467216
2.44724e-06
0.467214
2.40668e-06
0.467212
2.34448e-06
0.467209
2.29874e-06
0.467207
2.29896e-06
0.467205
2.34017e-06
0.467203
2.39375e-06
0.467201
2.41568e-06
0.467199
2.37268e-06
0.467197
2.25422e-06
0.467195
2.0975e-06
0.467193
1.98497e-06
0.467191
1.97223e-06
0.467189
2.04132e-06
0.467187
2.11136e-06
0.467185
2.11944e-06
0.467183
2.09459e-06
0.467182
2.11227e-06
0.46718
2.18432e-06
0.467178
2.2301e-06
0.467176
2.17818e-06
0.467173
2.0645e-06
0.467171
2.0053e-06
0.467169
2.0783e-06
0.467167
2.21977e-06
0.467165
2.30343e-06
0.467162
2.28411e-06
0.46716
2.21828e-06
0.467158
2.19672e-06
0.467156
2.24989e-06
0.467154
2.33124e-06
0.467152
2.37656e-06
0.467149
2.38389e-06
0.467146
2.38716e-06
0.467144
2.41957e-06
0.467141
2.50464e-06
0.467139
2.60078e-06
0.467136
2.64984e-06
0.467134
2.62981e-06
0.467132
2.57211e-06
0.467129
2.51918e-06
0.467127
2.48581e-06
0.467124
2.46403e-06
0.467122
2.43917e-06
0.467119
2.41279e-06
0.467117
2.37489e-06
0.467114
2.33811e-06
0.467112
2.32531e-06
0.467109
2.33981e-06
0.467107
2.35996e-06
0.467105
2.35993e-06
0.467102
2.32974e-06
0.4671
2.28403e-06
0.467098
2.24215e-06
0.467095
2.20269e-06
0.467093
2.15211e-06
0.467091
2.10655e-06
0.467088
2.10484e-06
0.467086
2.15907e-06
0.467084
2.22648e-06
0.467081
2.24576e-06
0.467079
2.19925e-06
0.467077
2.12838e-06
0.467074
2.08162e-06
0.467072
2.05476e-06
0.46707
1.99151e-06
0.467068
1.85071e-06
0.467066
1.66372e-06
0.467064
1.51316e-06
0.467062
1.45327e-06
0.46706
1.46075e-06
0.467058
1.47232e-06
0.467056
1.46007e-06
0.467054
1.45303e-06
0.467052
1.47783e-06
0.46705
1.50158e-06
0.467048
1.45808e-06
0.467047
1.33181e-06
0.467045
1.18891e-06
0.467043
1.10445e-06
0.467042
1.06947e-06
0.46704
1.00466e-06
0.467038
8.60001e-07
0.467037
6.83098e-07
0.467035
5.65433e-07
0.467034
5.32102e-07
0.467033
5.11698e-07
0.467032
4.19683e-07
0.467031
2.46482e-07
0.467031
5.73551e-08
0.46703
-9.13265e-08
0.467029
-1.96688e-07
0.467029
-3.06766e-07
0.467028
-4.47488e-07
0.467027
-5.9829e-07
0.467027
-7.08355e-07
0.467026
-7.4391e-07
0.467025
-7.11189e-07
0.467025
-6.45698e-07
0.467024
-5.83342e-07
0.467023
-5.48601e-07
0.467022
-5.41522e-07
0.467021
-5.43738e-07
0.467021
-5.31521e-07
0.46702
-5.05199e-07
-4.03047e-07
0.466947
-2.72815e-08
0.466947
1.41246e-07
0.466948
5.9165e-07
0.466949
1.38804e-06
0.466949
1.80811e-06
0.466949
2.03665e-06
0.466949
2.20975e-06
0.466949
2.49641e-06
0.466948
2.8568e-06
0.466948
2.71188e-06
0.466948
2.21298e-06
0.466948
1.71781e-06
0.466949
1.5618e-06
0.46695
1.82327e-06
0.46695
1.99564e-06
0.466951
1.86309e-06
0.466952
1.95993e-06
0.466952
1.99285e-06
0.466953
1.75003e-06
0.466955
1.81241e-06
0.466955
2.16604e-06
0.466956
2.19382e-06
0.466956
2.0267e-06
0.466957
1.94799e-06
0.466957
1.93779e-06
0.466958
2.00168e-06
0.466959
1.87381e-06
0.46696
1.783e-06
0.466961
2.07943e-06
0.466961
2.36112e-06
0.466961
2.39919e-06
0.466961
2.30638e-06
0.466961
2.27252e-06
0.466961
2.52235e-06
0.466961
2.81359e-06
0.46696
2.75646e-06
0.46696
2.60743e-06
0.466959
2.74435e-06
0.466959
2.92793e-06
0.466958
2.78064e-06
0.466958
2.4339e-06
0.466958
2.26612e-06
0.466958
2.2821e-06
0.466959
2.21901e-06
0.466959
2.02588e-06
0.466959
1.89834e-06
0.466959
1.94044e-06
0.46696
2.05738e-06
0.46696
2.12224e-06
0.466961
2.07883e-06
0.466961
1.95099e-06
0.466962
1.83068e-06
0.466963
1.7985e-06
0.466963
1.82941e-06
0.466964
1.85319e-06
0.466965
1.85871e-06
0.466966
1.87473e-06
0.466967
1.88525e-06
0.466968
1.85856e-06
0.466968
1.83219e-06
0.466969
1.8827e-06
0.466969
2.00914e-06
0.46697
2.12193e-06
0.46697
2.16161e-06
0.466971
2.16251e-06
0.466971
2.18598e-06
0.466971
2.24181e-06
0.46697
2.29878e-06
0.46697
2.33968e-06
0.46697
2.37858e-06
0.46697
2.42888e-06
0.46697
2.46638e-06
0.46697
2.44455e-06
0.46697
2.35315e-06
0.46697
2.24319e-06
0.46697
2.18272e-06
0.466971
2.19193e-06
0.466971
2.22589e-06
0.466971
2.21477e-06
0.466972
2.12582e-06
0.466973
2.00069e-06
0.466973
1.92417e-06
0.466974
1.93664e-06
0.466975
1.984e-06
0.466976
1.97709e-06
0.466976
1.90072e-06
0.466977
1.83973e-06
0.466978
1.88626e-06
0.466978
2.03919e-06
0.466978
2.20507e-06
0.466978
2.28784e-06
0.466978
2.2768e-06
0.466978
2.244e-06
0.466978
2.27147e-06
0.466978
2.37977e-06
0.466977
2.52116e-06
0.466977
2.62939e-06
0.466977
2.67076e-06
0.466976
2.65286e-06
0.466976
2.606e-06
0.466975
2.56427e-06
0.466975
2.5538e-06
0.466975
2.57329e-06
0.466975
2.58448e-06
0.466974
2.54303e-06
0.466974
2.45356e-06
0.466974
2.37819e-06
0.466973
2.3694e-06
0.466973
2.40569e-06
0.466973
2.42007e-06
0.466972
2.39319e-06
0.466972
2.38504e-06
0.466972
2.45134e-06
0.466972
2.54872e-06
0.466972
2.56404e-06
0.466972
2.44542e-06
0.466972
2.27376e-06
0.466971
2.18602e-06
0.466971
2.23912e-06
0.466971
2.36456e-06
0.466971
2.4477e-06
0.466971
2.42587e-06
0.466971
2.31656e-06
0.466971
2.19003e-06
0.466972
2.12443e-06
0.466972
2.1541e-06
0.466972
2.23568e-06
0.466972
2.27469e-06
0.466973
2.2095e-06
0.466973
2.07856e-06
0.466973
1.9874e-06
0.466974
2.00065e-06
0.466974
2.08601e-06
0.466974
2.166e-06
0.466974
2.201e-06
0.466974
2.21102e-06
0.466975
2.22299e-06
0.466975
2.23053e-06
0.466975
2.21688e-06
0.466975
2.18908e-06
0.466975
2.16924e-06
0.466975
2.16471e-06
0.466976
2.16313e-06
0.466976
2.15384e-06
0.466976
2.14052e-06
0.466977
2.13414e-06
0.466977
2.14634e-06
0.466977
2.18922e-06
0.466977
2.26606e-06
0.466977
2.35772e-06
0.466977
2.43047e-06
0.466977
2.45773e-06
0.466977
2.43214e-06
0.466977
2.35436e-06
0.466977
2.23067e-06
0.466976
2.09569e-06
0.466976
2.01883e-06
0.466976
2.05464e-06
0.466976
2.17357e-06
0.466976
2.26702e-06
0.466976
2.24942e-06
0.466976
2.14449e-06
0.466976
2.04841e-06
0.466976
2.01281e-06
0.466976
1.99349e-06
0.466977
1.92126e-06
0.466977
1.79695e-06
0.466977
1.69274e-06
0.466978
1.6602e-06
0.466978
1.66654e-06
0.466979
1.63157e-06
0.46698
1.51282e-06
0.466981
1.34516e-06
0.466982
1.20538e-06
0.466983
1.14589e-06
0.466984
1.16003e-06
0.466985
1.20576e-06
0.466986
1.24586e-06
0.466988
1.27137e-06
0.466989
1.3087e-06
0.46699
1.3845e-06
0.466991
1.49072e-06
0.466992
1.58796e-06
0.466993
1.64241e-06
0.466994
1.65266e-06
0.466995
1.64685e-06
0.466996
1.65969e-06
0.466996
1.70884e-06
0.466997
1.78684e-06
0.466997
1.85961e-06
0.466998
1.89776e-06
0.466998
1.90166e-06
0.466999
1.89195e-06
0.466999
1.87654e-06
0.467
1.8374e-06
0.467
1.75315e-06
0.467001
1.63265e-06
0.467002
1.51503e-06
0.467003
1.42982e-06
0.467003
1.36761e-06
0.467004
1.30523e-06
0.467005
1.2501e-06
0.467006
1.24051e-06
0.467007
1.29584e-06
0.467008
1.37782e-06
0.467008
1.41454e-06
0.467009
1.36687e-06
0.46701
1.26297e-06
0.467011
1.16209e-06
0.467012
1.08845e-06
0.467013
1.0105e-06
0.467013
8.87262e-07
0.467014
7.27999e-07
0.467015
5.92252e-07
0.467016
5.27469e-07
0.467017
5.18229e-07
0.467018
5.06864e-07
0.467019
4.61488e-07
0.46702
4.05765e-07
0.467021
3.72341e-07
0.467022
3.44555e-07
0.467023
2.70371e-07
0.467024
1.37944e-07
0.467025
1.7056e-08
0.467027
-1.52008e-08
0.467027
5.64151e-08
0.467028
1.5907e-07
0.467029
2.23092e-07
0.467029
2.58004e-07
0.467029
3.25124e-07
0.467029
4.50308e-07
0.467029
5.84569e-07
0.467029
6.53138e-07
0.467028
6.3075e-07
0.467027
5.57534e-07
0.467027
4.93262e-07
0.467026
4.61066e-07
0.467025
4.43142e-07
0.467024
4.08587e-07
0.467023
3.46867e-07
0.467022
2.71526e-07
0.467021
2.10957e-07
0.46702
1.85504e-07
0.467019
2.04282e-07
0.467019
2.50154e-07
0.467018
2.90419e-07
0.467017
3.04787e-07
0.467016
2.70825e-07
0.467015
3.16416e-07
1.42268e-07
0.466947
4.0603e-07
0.466947
1.03531e-06
0.466946
1.20528e-06
0.466946
9.78289e-07
0.466947
9.90864e-07
0.466948
1.22714e-06
0.466949
1.43665e-06
0.46695
1.36158e-06
0.466952
1.22038e-06
0.466953
1.40302e-06
0.466953
1.86807e-06
0.466953
2.33544e-06
0.466952
2.37678e-06
0.466952
2.08326e-06
0.466952
2.00858e-06
0.466951
2.05251e-06
0.466951
2.1396e-06
0.466951
2.08319e-06
0.466951
1.8943e-06
0.466951
1.85115e-06
0.466951
1.97256e-06
0.466951
1.897e-06
0.466952
1.67486e-06
0.466952
1.78354e-06
0.466952
1.89646e-06
0.466952
1.95969e-06
0.466952
2.2382e-06
0.466951
2.35513e-06
0.466951
2.3304e-06
0.466951
2.49763e-06
0.46695
2.68653e-06
0.46695
2.6193e-06
0.46695
2.38031e-06
0.46695
2.23441e-06
0.466951
2.23372e-06
0.466951
2.16291e-06
0.466952
1.89911e-06
0.466953
1.62317e-06
0.466955
1.58884e-06
0.466956
1.73835e-06
0.466956
1.79924e-06
0.466957
1.74061e-06
0.466957
1.77847e-06
0.466958
1.96191e-06
0.466957
2.09743e-06
0.466957
2.06998e-06
0.466957
1.95648e-06
0.466957
1.86557e-06
0.466958
1.81606e-06
0.466958
1.77273e-06
0.466958
1.74327e-06
0.466958
1.77336e-06
0.466958
1.8762e-06
0.466958
1.98008e-06
0.466958
2.01883e-06
0.466958
2.00661e-06
0.466958
2.01248e-06
0.466957
2.04954e-06
0.466957
2.07559e-06
0.466957
2.0888e-06
0.466957
2.13276e-06
0.466957
2.19028e-06
0.466957
2.16788e-06
0.466957
2.03294e-06
0.466957
1.89086e-06
0.466957
1.85762e-06
0.466958
1.9083e-06
0.466958
1.91276e-06
0.466959
1.80792e-06
0.466959
1.67837e-06
0.46696
1.65589e-06
0.466961
1.76849e-06
0.466961
1.91244e-06
0.466962
1.97183e-06
0.466962
1.93436e-06
0.466962
1.87681e-06
0.466963
1.86337e-06
0.466963
1.88753e-06
0.466963
1.90631e-06
0.466963
1.89713e-06
0.466964
1.87356e-06
0.466964
1.86532e-06
0.466964
1.88762e-06
0.466964
1.92266e-06
0.466964
1.93459e-06
0.466964
1.9081e-06
0.466964
1.86635e-06
0.466964
1.84228e-06
0.466964
1.8389e-06
0.466964
1.82647e-06
0.466965
1.7765e-06
0.466965
1.69435e-06
0.466966
1.61334e-06
0.466967
1.56184e-06
0.466968
1.53978e-06
0.466969
1.5266e-06
0.46697
1.5116e-06
0.466971
1.50629e-06
0.466972
1.52511e-06
0.466973
1.56147e-06
0.466974
1.58921e-06
0.466975
1.60077e-06
0.466976
1.62309e-06
0.466977
1.68148e-06
0.466978
1.75248e-06
0.466978
1.77842e-06
0.466979
1.73969e-06
0.46698
1.69213e-06
0.46698
1.71251e-06
0.466981
1.81345e-06
0.466981
1.93186e-06
0.466982
2.00113e-06
0.466982
2.01325e-06
0.466983
1.99985e-06
0.466983
1.97766e-06
0.466984
1.94191e-06
0.466984
1.90746e-06
0.466984
1.92125e-06
0.466985
2.01179e-06
0.466985
2.14219e-06
0.466985
2.23605e-06
0.466985
2.24531e-06
0.466985
2.18093e-06
0.466986
2.08874e-06
0.466986
2.01564e-06
0.466986
1.99362e-06
0.466986
2.02479e-06
0.466986
2.06515e-06
0.466986
2.04311e-06
0.466987
1.9249e-06
0.466987
1.76463e-06
0.466987
1.66915e-06
0.466988
1.70278e-06
0.466988
1.83035e-06
0.466988
1.95753e-06
0.466988
2.01755e-06
0.466989
2.00861e-06
0.466989
1.96538e-06
0.466989
1.92194e-06
0.466989
1.9002e-06
0.46699
1.9066e-06
0.46699
1.9242e-06
0.46699
1.91892e-06
0.46699
1.86965e-06
0.466991
1.79316e-06
0.466991
1.73316e-06
0.466992
1.72601e-06
0.466992
1.77813e-06
0.466992
1.86572e-06
0.466993
1.94586e-06
0.466993
1.97467e-06
0.466994
1.9329e-06
0.466994
1.84381e-06
0.466995
1.75539e-06
0.466995
1.69685e-06
0.466996
1.663e-06
0.466996
1.64904e-06
0.466997
1.68239e-06
0.466997
1.79208e-06
0.466997
1.94577e-06
0.466998
2.04908e-06
0.466998
2.03157e-06
0.466998
1.92377e-06
0.466998
1.82729e-06
0.466998
1.8102e-06
0.466998
1.84914e-06
0.466998
1.87513e-06
0.466998
1.8571e-06
0.466998
1.8224e-06
0.466998
1.80654e-06
0.466998
1.80765e-06
0.466997
1.79574e-06
0.466997
1.75136e-06
0.466996
1.68804e-06
0.466996
1.64166e-06
0.466995
1.64384e-06
0.466995
1.70352e-06
0.466994
1.80143e-06
0.466994
1.89912e-06
0.466993
1.96633e-06
0.466992
1.99703e-06
0.466992
2.00191e-06
0.466991
1.99402e-06
0.466991
1.97933e-06
0.466991
1.95509e-06
0.466991
1.91641e-06
0.46699
1.86818e-06
0.46699
1.83315e-06
0.46699
1.84022e-06
0.46699
1.89557e-06
0.46699
1.97247e-06
0.46699
2.03342e-06
0.46699
2.06147e-06
0.46699
2.06552e-06
0.466989
2.05587e-06
0.466989
2.02326e-06
0.466989
1.9533e-06
0.466988
1.85969e-06
0.466988
1.78566e-06
0.466988
1.76353e-06
0.466987
1.78316e-06
0.466987
1.81014e-06
0.466986
1.83023e-06
0.466985
1.86359e-06
0.466985
1.93047e-06
0.466984
2.01084e-06
0.466984
2.05059e-06
0.466983
2.01201e-06
0.466982
1.91339e-06
0.466981
1.81392e-06
0.466981
1.75857e-06
0.46698
1.74477e-06
0.466979
1.74498e-06
0.466978
1.75442e-06
0.466976
1.80257e-06
0.466975
1.9101e-06
0.466973
2.04607e-06
0.466972
2.14557e-06
0.46697
2.17146e-06
0.466968
2.14417e-06
0.466966
2.10027e-06
0.466965
2.03268e-06
0.466963
1.89447e-06
0.466961
1.66667e-06
0.46696
1.39939e-06
0.466959
1.17353e-06
0.466958
1.01562e-06
0.466957
8.76998e-07
0.466957
6.97913e-07
0.466957
4.7259e-07
0.466957
2.44788e-07
0.466957
4.79405e-08
0.466958
-1.34036e-07
0.466959
-3.4051e-07
0.46696
-5.88444e-07
0.466962
-8.53506e-07
0.466963
-1.09167e-06
0.466965
-1.27146e-06
0.466967
-1.38805e-06
0.466969
-1.45545e-06
0.46697
-1.49346e-06
0.466972
-1.51733e-06
0.466974
-1.53211e-06
0.466975
-1.53004e-06
0.466977
-1.50266e-06
0.466979
-1.44572e-06
0.466981
-1.38296e-06
0.466982
-1.32224e-06
0.466984
-1.41816e-06
-1.35507e-06
0.46695
-1.30717e-07
0.46695
4.83008e-07
0.46695
1.24038e-06
0.46695
1.73541e-06
0.466949
1.42402e-06
0.466949
1.00785e-06
0.466949
1.52195e-06
0.466949
1.91869e-06
0.466948
2.10224e-06
0.466947
2.15651e-06
0.466947
1.90727e-06
0.466948
1.7147e-06
0.466948
1.90133e-06
0.466948
2.06014e-06
0.466948
2.0818e-06
0.466948
1.81494e-06
0.466949
1.63e-06
0.466949
1.84206e-06
0.466949
1.90551e-06
0.466949
1.69432e-06
0.46695
1.66036e-06
0.46695
1.9068e-06
0.466949
1.99884e-06
0.466949
1.86588e-06
0.466949
1.8214e-06
0.466949
1.78783e-06
0.46695
1.7465e-06
0.466951
1.70661e-06
0.466951
1.50237e-06
0.466953
1.27613e-06
0.466954
1.30954e-06
0.466955
1.47333e-06
0.466956
1.4065e-06
0.466957
1.20526e-06
0.466958
1.33938e-06
0.466958
1.77465e-06
0.466958
2.01014e-06
0.466958
1.90177e-06
0.466958
1.84912e-06
0.466957
2.03043e-06
0.466957
2.16225e-06
0.466957
2.07969e-06
0.466957
1.98389e-06
0.466956
2.02535e-06
0.466957
2.08903e-06
0.466957
2.05774e-06
0.466957
1.97105e-06
0.466956
1.88777e-06
0.466956
1.82362e-06
0.466956
1.80247e-06
0.466956
1.82481e-06
0.466956
1.81402e-06
0.466956
1.71358e-06
0.466957
1.5874e-06
0.466957
1.53095e-06
0.466958
1.54293e-06
0.466958
1.56903e-06
0.466959
1.59507e-06
0.466959
1.64698e-06
0.46696
1.71868e-06
0.46696
1.75805e-06
0.46696
1.72902e-06
0.466961
1.6539e-06
0.466961
1.6005e-06
0.466962
1.63418e-06
0.466962
1.75631e-06
0.466962
1.89216e-06
0.466962
1.95082e-06
0.466962
1.90564e-06
0.466961
1.8093e-06
0.466961
1.73567e-06
0.466961
1.72297e-06
0.466962
1.76081e-06
0.466962
1.8151e-06
0.466962
1.85878e-06
0.466962
1.8775e-06
0.466962
1.85999e-06
0.466962
1.80387e-06
0.466962
1.73426e-06
0.466962
1.69152e-06
0.466962
1.68498e-06
0.466963
1.67533e-06
0.466963
1.61635e-06
0.466963
1.50674e-06
0.466964
1.39139e-06
0.466964
1.31578e-06
0.466965
1.28677e-06
0.466966
1.27095e-06
0.466966
1.22662e-06
0.466967
1.14033e-06
0.466968
1.03639e-06
0.466968
9.57286e-07
0.466969
9.30155e-07
0.46697
9.47623e-07
0.46697
9.77504e-07
0.466971
9.87509e-07
0.466971
9.6971e-07
0.466972
9.44164e-07
0.466972
9.40947e-07
0.466973
9.72512e-07
0.466974
1.0198e-06
0.466974
1.05621e-06
0.466975
1.08466e-06
0.466975
1.14047e-06
0.466976
1.24354e-06
0.466976
1.35785e-06
0.466976
1.4243e-06
0.466977
1.43909e-06
0.466977
1.47812e-06
0.466977
1.61993e-06
0.466977
1.84883e-06
0.466977
2.05369e-06
0.466977
2.13056e-06
0.466977
2.0752e-06
0.466977
1.97183e-06
0.466977
1.90807e-06
0.466977
1.91482e-06
0.466977
1.97254e-06
0.466977
2.04085e-06
0.466977
2.07447e-06
0.466977
2.04061e-06
0.466978
1.94659e-06
0.466978
1.84398e-06
0.466978
1.78684e-06
0.466978
1.78438e-06
0.466979
1.80405e-06
0.466979
1.81507e-06
0.466979
1.81204e-06
0.466979
1.79659e-06
0.466979
1.76097e-06
0.466979
1.70763e-06
0.466979
1.67321e-06
0.466979
1.70765e-06
0.466979
1.81778e-06
0.46698
1.94722e-06
0.46698
2.02525e-06
0.466979
2.02734e-06
0.466979
1.98249e-06
0.466979
1.93407e-06
0.466979
1.90647e-06
0.466979
1.90076e-06
0.466979
1.90107e-06
0.46698
1.88084e-06
0.46698
1.81883e-06
0.46698
1.72159e-06
0.46698
1.62655e-06
0.46698
1.57533e-06
0.46698
1.58234e-06
0.46698
1.62719e-06
0.466981
1.66803e-06
0.466981
1.6585e-06
0.466981
1.56718e-06
0.466982
1.40402e-06
0.466982
1.23011e-06
0.466983
1.12111e-06
0.466983
1.10594e-06
0.466984
1.14853e-06
0.466984
1.19826e-06
0.466985
1.24541e-06
0.466986
1.31032e-06
0.466986
1.38545e-06
0.466987
1.41876e-06
0.466987
1.37212e-06
0.466988
1.28003e-06
0.466989
1.22743e-06
0.466989
1.2672e-06
0.46699
1.3727e-06
0.46699
1.47338e-06
0.46699
1.52259e-06
0.466991
1.52484e-06
0.466991
1.51017e-06
0.466991
1.49863e-06
0.466991
1.49023e-06
0.466992
1.4785e-06
0.466992
1.46528e-06
0.466992
1.46258e-06
0.466992
1.48528e-06
0.466992
1.53815e-06
0.466993
1.60474e-06
0.466993
1.65376e-06
0.466993
1.65756e-06
0.466994
1.6073e-06
0.466994
1.51558e-06
0.466995
1.40773e-06
0.466996
1.30888e-06
0.466996
1.23286e-06
0.466997
1.18021e-06
0.466998
1.1491e-06
0.466998
1.14671e-06
0.466999
1.18428e-06
0.467
1.25753e-06
0.467
1.33658e-06
0.467001
1.38421e-06
0.467002
1.38413e-06
0.467002
1.34713e-06
0.467003
1.28733e-06
0.467004
1.20189e-06
0.467005
1.08442e-06
0.467006
9.53075e-07
0.467006
8.49727e-07
0.467007
8.03927e-07
0.467008
8.02991e-07
0.467009
8.05133e-07
0.467011
7.8079e-07
0.467012
7.35002e-07
0.467013
6.86713e-07
0.467014
6.32687e-07
0.467016
5.425e-07
0.467017
3.92708e-07
0.467019
2.04608e-07
0.467021
3.6078e-08
0.467023
-5.89775e-08
0.467024
-7.01685e-08
0.467026
-2.21237e-08
0.467028
7.24478e-08
0.46703
2.26962e-07
0.467031
4.46737e-07
0.467033
6.948e-07
0.467034
9.058e-07
0.467035
1.04287e-06
0.467036
1.12865e-06
0.467037
1.20816e-06
0.467037
1.28804e-06
0.467038
1.32955e-06
0.467038
1.30312e-06
0.467038
1.23531e-06
0.467038
1.18236e-06
0.467037
1.16524e-06
0.467037
1.147e-06
0.467036
1.07555e-06
0.467036
9.37195e-07
0.467035
7.61864e-07
0.467034
5.82842e-07
0.467033
4.07117e-07
0.467033
2.20664e-07
0.467032
1.6935e-08
0.467031
-1.87992e-07
0.46703
-3.65967e-07
0.467029
-4.92368e-07
0.467028
-5.55789e-07
0.467027
-5.61196e-07
0.467026
-5.2674e-07
0.467025
-4.73921e-07
0.467024
-4.18798e-07
0.467023
-3.68726e-07
0.467022
-3.2371e-07
0.467021
-2.77791e-07
0.46702
-2.48283e-07
0.467018
-1.7996e-07
-4.06336e-07
0.466948
-3.24941e-07
0.466948
-1.5151e-07
0.466949
3.6752e-07
0.46695
7.87736e-07
0.46695
1.14133e-06
0.46695
1.24221e-06
0.466951
1.14752e-06
0.466951
1.38027e-06
0.466952
1.34539e-06
0.466953
1.14131e-06
0.466954
1.1572e-06
0.466954
1.21356e-06
0.466955
1.12582e-06
0.466956
9.73885e-07
0.466957
1.13283e-06
0.466957
1.49613e-06
0.466957
1.43516e-06
0.466958
1.39565e-06
0.466958
1.46639e-06
0.466959
1.34337e-06
0.466959
1.34836e-06
0.466959
1.52555e-06
0.46696
1.73637e-06
0.46696
1.86481e-06
0.46696
1.76879e-06
0.46696
1.63396e-06
0.46696
1.7405e-06
0.46696
1.89889e-06
0.466959
1.84332e-06
0.466959
1.76846e-06
0.466958
1.84598e-06
0.466958
1.99939e-06
0.466957
2.02949e-06
0.466957
1.81034e-06
0.466956
1.55356e-06
0.466957
1.53754e-06
0.466957
1.67877e-06
0.466957
1.68725e-06
0.466957
1.54233e-06
0.466958
1.45045e-06
0.466959
1.46297e-06
0.466959
1.43699e-06
0.46696
1.31486e-06
0.466961
1.19205e-06
0.466962
1.14451e-06
0.466963
1.13446e-06
0.466964
1.10005e-06
0.466964
1.04928e-06
0.466965
1.05332e-06
0.466966
1.16902e-06
0.466966
1.33825e-06
0.466967
1.40603e-06
0.466967
1.32768e-06
0.466967
1.23489e-06
0.466968
1.24364e-06
0.466968
1.30217e-06
0.466968
1.30712e-06
0.466969
1.28765e-06
0.466969
1.34098e-06
0.466969
1.44359e-06
0.466969
1.46228e-06
0.46697
1.35952e-06
0.46697
1.25673e-06
0.46697
1.27083e-06
0.466971
1.37376e-06
0.466971
1.44933e-06
0.466972
1.4462e-06
0.466972
1.42118e-06
0.466972
1.44771e-06
0.466973
1.52236e-06
0.466973
1.5794e-06
0.466973
1.57913e-06
0.466973
1.55239e-06
0.466974
1.54897e-06
0.466974
1.5713e-06
0.466974
1.57595e-06
0.466974
1.52904e-06
0.466975
1.44553e-06
0.466975
1.37972e-06
0.466975
1.38081e-06
0.466976
1.44644e-06
0.466976
1.51863e-06
0.466976
1.53659e-06
0.466976
1.49479e-06
0.466976
1.44442e-06
0.466976
1.44011e-06
0.466976
1.49059e-06
0.466975
1.55578e-06
0.466975
1.58778e-06
0.466975
1.56898e-06
0.466974
1.51756e-06
0.466974
1.46641e-06
0.466973
1.43575e-06
0.466973
1.42646e-06
0.466972
1.4297e-06
0.466972
1.43567e-06
0.466971
1.43553e-06
0.466971
1.41947e-06
0.46697
1.38623e-06
0.46697
1.35201e-06
0.46697
1.33835e-06
0.466969
1.34927e-06
0.466969
1.36643e-06
0.466969
1.37351e-06
0.466969
1.3753e-06
0.466969
1.38208e-06
0.466969
1.38595e-06
0.466969
1.3729e-06
0.466969
1.35982e-06
0.466969
1.39504e-06
0.466969
1.50153e-06
0.46697
1.62738e-06
0.46697
1.67966e-06
0.466971
1.61781e-06
0.466971
1.50264e-06
0.466972
1.44067e-06
0.466972
1.48616e-06
0.466972
1.60382e-06
0.466973
1.71151e-06
0.466973
1.74328e-06
0.466973
1.68177e-06
0.466974
1.56062e-06
0.466974
1.44938e-06
0.466975
1.41376e-06
0.466975
1.46299e-06
0.466975
1.53548e-06
0.466975
1.55162e-06
0.466976
1.4861e-06
0.466976
1.38433e-06
0.466977
1.31137e-06
0.466977
1.29621e-06
0.466977
1.3282e-06
0.466978
1.38923e-06
0.466978
1.46645e-06
0.466979
1.53919e-06
0.466979
1.57922e-06
0.466979
1.57692e-06
0.46698
1.55678e-06
0.46698
1.55484e-06
0.466981
1.58416e-06
0.466981
1.62859e-06
0.466981
1.66352e-06
0.466981
1.6741e-06
0.466981
1.65916e-06
0.466982
1.63175e-06
0.466982
1.61735e-06
0.466981