/*--------------------------------*- C++ -*----------------------------------*\
| =========                 |                                                 |
| \\      /  F ield         | OpenFOAM: The Open Source CFD Toolbox           |
|  \\    /   O peration     | Version:  2406                                  |
|   \\  /    A nd           | Website:  www.openfoam.com                      |
|    \\/     M anipulation  |                                                 |
\*---------------------------------------------------------------------------*/
FoamFile
{
    version     2.0;
    format      ascii;
    arch        "LSB;label=32;scalar=64";
    class       volVectorField;
    location    "0.55";
    object      U;
}
// * * * * * * * * * * * * * * * * * * * * * * * * * * * * * * * * * * * * * //

dimensions      [0 1 -1 0 0 0 0];

internalField   nonuniform List<vector> 
6250
(
(45.9978 0.000140134 0)
(77.9546 0.000615176 0)
(66.9783 0.00091428 0)
(55.4453 0.000924338 0)
(54.7286 0.000855154 0)
(57.8698 0.000848078 0)
(59.2519 0.000884294 0)
(58.8451 0.00090835 0)
(58.2833 0.000834951 0)
(58.1887 0.000798403 0)
(58.3179 0.00084586 0)
(58.3946 0.000900339 0)
(58.3851 0.000916327 0)
(58.3582 0.00091125 0)
(58.35 0.000919649 0)
(58.3541 0.000945465 0)
(58.3574 0.000961399 0)
(58.3568 0.000964015 0)
(58.3549 0.000970601 0)
(58.3537 0.000962354 0)
(58.3532 0.000936212 0)
(58.3528 0.000934821 0)
(58.352 0.000953324 0)
(58.3513 0.000943206 0)
(58.3505 0.00089904 0)
(58.3499 0.000846751 0)
(58.3491 0.00079044 0)
(58.3484 0.000728151 0)
(58.3479 0.000680907 0)
(58.3472 0.000660229 0)
(58.3466 0.000669793 0)
(58.3461 0.000712787 0)
(58.3454 0.000777066 0)
(58.3448 0.000846879 0)
(58.3441 0.000918903 0)
(58.3434 0.000996923 0)
(58.3427 0.00106826 0)
(58.342 0.00109751 0)
(58.3413 0.00106842 0)
(58.3406 0.00101636 0)
(58.34 0.000981478 0)
(58.3393 0.000954603 0)
(58.3387 0.000908629 0)
(58.3381 0.000855615 0)
(58.3375 0.000828199 0)
(58.3369 0.000826112 0)
(58.3363 0.000820489 0)
(58.3357 0.00079745 0)
(58.3351 0.000767744 0)
(58.3346 0.000744375 0)
(58.334 0.000729098 0)
(58.3335 0.000714242 0)
(58.3329 0.000690142 0)
(58.3323 0.000655133 0)
(58.3318 0.000618156 0)
(58.3314 0.000587569 0)
(58.3309 0.000563171 0)
(58.3304 0.000544194 0)
(58.3299 0.000538337 0)
(58.3294 0.000553166 0)
(58.3288 0.000583956 0)
(58.3283 0.000619199 0)
(58.3277 0.000654642 0)
(58.3272 0.000693677 0)
(58.3266 0.000736511 0)
(58.326 0.000777164 0)
(58.3254 0.000810558 0)
(58.3248 0.000835988 0)
(58.3242 0.000853773 0)
(58.3236 0.000863912 0)
(58.3229 0.000868945 0)
(58.3223 0.000873706 0)
(58.3217 0.000879681 0)
(58.3211 0.000881333 0)
(58.3205 0.000871095 0)
(58.3198 0.000849707 0)
(58.3192 0.000830003 0)
(58.3185 0.000827634 0)
(58.3179 0.000846616 0)
(58.3172 0.000874086 0)
(58.3164 0.000890583 0)
(58.3157 0.000886946 0)
(58.315 0.000872277 0)
(58.3143 0.000865723 0)
(58.3136 0.000878978 0)
(58.3129 0.000905607 0)
(58.3122 0.000927577 0)
(58.3115 0.000932899 0)
(58.3109 0.000927182 0)
(58.3102 0.000928009 0)
(58.3096 0.000947322 0)
(58.3089 0.000979348 0)
(58.3082 0.0010051 0)
(58.3076 0.00101028 0)
(58.3069 0.000999089 0)
(58.3063 0.00098919 0)
(58.3056 0.000992755 0)
(58.305 0.00100468 0)
(58.3043 0.00101077 0)
(58.3037 0.00100428 0)
(58.303 0.000990121 0)
(58.3024 0.00097458 0)
(58.3017 0.000957832 0)
(58.3011 0.00093899 0)
(58.3006 0.00092292 0)
(58.3 0.000914855 0)
(58.2994 0.000910056 0)
(58.2988 0.000896094 0)
(58.2983 0.000867198 0)
(58.2978 0.000831038 0)
(58.2973 0.000797549 0)
(58.2969 0.000765407 0)
(58.2964 0.000725681 0)
(58.296 0.000677019 0)
(58.2956 0.000629768 0)
(58.2952 0.000592482 0)
(58.2949 0.000558863 0)
(58.2946 0.000513618 0)
(58.2943 0.000451352 0)
(58.2941 0.000384357 0)
(58.2938 0.000329486 0)
(58.2936 0.000291088 0)
(58.2935 0.000258313 0)
(58.2933 0.000216675 0)
(58.2931 0.000162384 0)
(58.293 0.000106845 0)
(58.2929 6.69555e-05 0)
(58.2928 5.03641e-05 0)
(58.2927 4.83073e-05 0)
(58.2926 4.15748e-05 0)
(58.2925 1.85563e-05 0)
(58.2924 -1.18652e-05 0)
(58.2924 -2.92603e-05 0)
(58.2923 -2.28384e-05 0)
(58.2922 -2.02469e-06 0)
(58.2922 1.03934e-05 0)
(58.2921 -7.14608e-07 0)
(58.292 -2.98093e-05 0)
(58.292 -5.87063e-05 0)
(58.292 -7.4172e-05 0)
(58.2919 -7.62688e-05 0)
(58.2919 -7.39287e-05 0)
(58.2918 -7.51239e-05 0)
(58.2918 -8.17078e-05 0)
(58.2917 -9.09406e-05 0)
(58.2917 -9.96804e-05 0)
(58.2917 -0.000107508 0)
(58.2916 -0.000115762 0)
(58.2916 -0.000123134 0)
(58.2916 -0.00012443 0)
(58.2916 -0.000116662 0)
(58.2916 -0.000101645 0)
(58.2915 -8.6527e-05 0)
(58.2915 -7.91811e-05 0)
(58.2914 -8.28765e-05 0)
(58.2914 -9.62431e-05 0)
(58.2914 -0.000114329 0)
(58.2914 -0.000132637 0)
(58.2914 -0.000147874 0)
(58.2914 -0.000155883 0)
(58.2914 -0.000155386 0)
(58.2913 -0.000153025 0)
(58.2913 -0.000160477 0)
(58.2912 -0.000184128 0)
(58.2912 -0.000218626 0)
(58.2912 -0.000251129 0)
(58.2912 -0.000272506 0)
(58.2913 -0.000286721 0)
(58.2912 -0.000301447 0)
(58.2912 -0.000316226 0)
(58.2913 -0.000323027 0)
(58.2912 -0.00031795 0)
(58.2912 -0.000310035 0)
(58.2912 -0.000315529 0)
(58.2912 -0.000342587 0)
(58.2912 -0.000379998 0)
(58.2912 -0.000409847 0)
(58.2912 -0.00041923 0)
(58.2912 -0.000407073 0)
(58.2912 -0.000390281 0)
(58.2912 -0.000384545 0)
(58.2912 -0.000389053 0)
(58.2912 -0.000388809 0)
(58.2912 -0.000376018 0)
(58.2911 -0.000359247 0)
(58.2911 -0.000353213 0)
(58.2911 -0.000362569 0)
(58.2911 -0.000378127 0)
(58.2912 -0.000389665 0)
(58.2912 -0.000388415 0)
(58.2912 -0.000375577 0)
(58.2912 -0.000360851 0)
(58.2912 -0.000352662 0)
(58.2912 -0.000352066 0)
(58.2912 -0.000357311 0)
(58.2912 -0.000367121 0)
(58.2912 -0.000380956 0)
(58.2912 -0.00039843 0)
(58.2913 -0.000417455 0)
(58.2913 -0.000432337 0)
(58.2913 -0.000439336 0)
(58.2913 -0.000441827 0)
(58.2914 -0.000447753 0)
(58.2914 -0.000461015 0)
(58.2914 -0.000477071 0)
(58.2914 -0.000487674 0)
(58.2914 -0.000490146 0)
(58.2914 -0.000491182 0)
(58.2915 -0.000500918 0)
(58.2915 -0.000523232 0)
(58.2915 -0.000551438 0)
(58.2916 -0.0005742 0)
(58.2916 -0.000585858 0)
(58.2917 -0.000590427 0)
(58.2918 -0.000595519 0)
(58.2918 -0.000603102 0)
(58.2919 -0.000607342 0)
(58.2919 -0.000601548 0)
(58.292 -0.00058532 0)
(58.292 -0.000563365 0)
(58.2921 -0.000538405 0)
(58.2921 -0.000508026 0)
(58.2922 -0.000469629 0)
(58.2922 -0.000425907 0)
(58.2923 -0.000382086 0)
(58.2924 -0.000337732 0)
(58.2925 -0.000284734 0)
(58.2926 -0.00021617 0)
(58.2927 -0.000136271 0)
(58.2928 -5.86947e-05 0)
(58.2928 5.57445e-06 0)
(58.2929 5.69115e-05 0)
(58.293 0.000103095 0)
(58.2931 0.0001482 0)
(58.2932 0.000186839 0)
(58.2933 0.000209243 0)
(58.2934 0.000211189 0)
(58.2935 0.000199369 0)
(58.2937 0.000187349 0)
(58.2939 0.000185289 0)
(58.294 0.000191877 0)
(58.2942 0.00019523 0)
(58.2943 0.000183143 0)
(58.2945 0.000154758 0)
(58.2947 0.000122703 0)
(58.2949 0.000103519 0)
(58.295 0.000105383 0)
(58.2952 0.000122732 0)
(58.2953 0.000139304 0)
(58.2954 0.000168329 0)
(45.9979 8.67516e-05 0)
(77.9565 0.000452136 0)
(66.9819 0.000733325 0)
(55.4506 0.000702334 0)
(54.735 0.000605679 0)
(57.8776 0.000572387 0)
(59.2604 0.000555506 0)
(58.8554 0.000539817 0)
(58.2944 0.000465373 0)
(58.2007 0.000400582 0)
(58.331 0.000401808 0)
(58.4088 0.000444985 0)
(58.4003 0.000489135 0)
(58.3745 0.000516053 0)
(58.3675 0.000536047 0)
(58.373 0.000557486 0)
(58.3775 0.00055806 0)
(58.378 0.000530449 0)
(58.3773 0.00051887 0)
(58.3772 0.000518982 0)
(58.3775 0.000484968 0)
(58.3781 0.00045512 0)
(58.3785 0.000472362 0)
(58.3789 0.000498539 0)
(58.3792 0.000516153 0)
(58.3796 0.000536413 0)
(58.38 0.000557444 0)
(58.3803 0.000567287 0)
(58.3806 0.000569037 0)
(58.3808 0.000553556 0)
(58.3811 0.00051804 0)
(58.3814 0.000484712 0)
(58.3817 0.000465056 0)
(58.3821 0.000442768 0)
(58.3824 0.000398696 0)
(58.3828 0.000353582 0)
(58.3833 0.000344551 0)
(58.3838 0.000355691 0)
(58.3841 0.000342203 0)
(58.3845 0.000313083 0)
(58.3849 0.000316022 0)
(58.3853 0.000352727 0)
(58.3856 0.000375327 0)
(58.3859 0.000362927 0)
(58.3862 0.000345053 0)
(58.3865 0.000348985 0)
(58.3868 0.000368252 0)
(58.3871 0.000385619 0)
(58.3873 0.000395699 0)
(58.3876 0.000402486 0)
(58.3878 0.000410786 0)
(58.3881 0.000418767 0)
(58.3883 0.000417625 0)
(58.3886 0.000405723 0)
(58.3888 0.000397632 0)
(58.3889 0.000407314 0)
(58.389 0.000428982 0)
(58.3892 0.000447091 0)
(58.3893 0.000458248 0)
(58.3896 0.000469295 0)
(58.3898 0.00047873 0)
(58.39 0.000475828 0)
(58.3902 0.000457895 0)
(58.3905 0.000434305 0)
(58.3908 0.000412083 0)
(58.391 0.000389992 0)
(58.3914 0.000369252 0)
(58.3917 0.000357993 0)
(58.392 0.000359396 0)
(58.3923 0.000363339 0)
(58.3927 0.000357402 0)
(58.393 0.000344056 0)
(58.3933 0.000340255 0)
(58.3937 0.000358201 0)
(58.394 0.000391036 0)
(58.3944 0.000421164 0)
(58.3947 0.000440199 0)
(58.395 0.000455553 0)
(58.3954 0.000477327 0)
(58.3957 0.000504281 0)
(58.3961 0.000525741 0)
(58.3965 0.000533844 0)
(58.3968 0.000530296 0)
(58.3972 0.000522223 0)
(58.3975 0.000513762 0)
(58.3979 0.000502321 0)
(58.3983 0.00048237 0)
(58.3987 0.000452254 0)
(58.3991 0.000416837 0)
(58.3994 0.000383666 0)
(58.3997 0.000357276 0)
(58.4001 0.000337511 0)
(58.4006 0.000321835 0)
(58.4009 0.000308701 0)
(58.4013 0.000299233 0)
(58.4017 0.000295911 0)
(58.402 0.000298943 0)
(58.4024 0.000304198 0)
(58.4028 0.000306299 0)
(58.4032 0.000304255 0)
(58.4035 0.000302034 0)
(58.4039 0.000301878 0)
(58.4042 0.000299449 0)
(58.4046 0.000288867 0)
(58.4049 0.000271987 0)
(58.4052 0.00025768 0)
(58.4055 0.000250028 0)
(58.4058 0.000241845 0)
(58.4061 0.000224189 0)
(58.4063 0.000200093 0)
(58.4065 0.000183078 0)
(58.4067 0.000181103 0)
(58.4069 0.000186748 0)
(58.407 0.000186241 0)
(58.4071 0.000174931 0)
(58.4072 0.000159851 0)
(58.4072 0.000148392 0)
(58.4073 0.000139972 0)
(58.4073 0.000131123 0)
(58.4072 0.000123898 0)
(58.4072 0.000124183 0)
(58.4071 0.00013361 0)
(58.407 0.000147054 0)
(58.4069 0.00015789 0)
(58.4067 0.00016372 0)
(58.4065 0.000166511 0)
(58.4063 0.00016892 0)
(58.4061 0.00017256 0)
(58.4059 0.000177832 0)
(58.4057 0.000181558 0)
(58.4055 0.000177745 0)
(58.4053 0.000164055 0)
(58.405 0.0001464 0)
(58.4048 0.000135704 0)
(58.4046 0.000138717 0)
(58.4044 0.000149897 0)
(58.4041 0.000156967 0)
(58.4039 0.000153953 0)
(58.4036 0.000146104 0)
(58.4034 0.000143173 0)
(58.4031 0.000150715 0)
(58.4029 0.000166871 0)
(58.4026 0.000185031 0)
(58.4024 0.000197463 0)
(58.4021 0.000198215 0)
(58.4019 0.000186228 0)
(58.4016 0.000166808 0)
(58.4013 0.000149265 0)
(58.401 0.000141867 0)
(58.4007 0.000147328 0)
(58.4005 0.000160764 0)
(58.4002 0.000173881 0)
(58.4 0.000178943 0)
(58.3997 0.000172885 0)
(58.3995 0.000159738 0)
(58.3993 0.000147892 0)
(58.399 0.000144795 0)
(58.3988 0.000151146 0)
(58.3985 0.000162797 0)
(58.3983 0.000178536 0)
(58.398 0.000200679 0)
(58.3978 0.000227459 0)
(58.3976 0.000249057 0)
(58.3974 0.000255324 0)
(58.3971 0.000247348 0)
(58.3968 0.000239204 0)
(58.3965 0.000245815 0)
(58.3963 0.000267877 0)
(58.396 0.000294586 0)
(58.3957 0.000316222 0)
(58.3954 0.000331545 0)
(58.3952 0.000344823 0)
(58.3949 0.000358491 0)
(58.3947 0.000370198 0)
(58.3944 0.000375769 0)
(58.3941 0.000375031 0)
(58.3938 0.000370673 0)
(58.3935 0.000369581 0)
(58.3932 0.000379698 0)
(58.3928 0.000398182 0)
(58.3925 0.000414852 0)
(58.3922 0.000421115 0)
(58.3919 0.000416559 0)
(58.3916 0.000405558 0)
(58.3913 0.000392931 0)
(58.391 0.000381128 0)
(58.3907 0.000369967 0)
(58.3904 0.000358325 0)
(58.3901 0.000345067 0)
(58.3897 0.000335538 0)
(58.3894 0.000335222 0)
(58.3891 0.000343416 0)
(58.3888 0.000354307 0)
(58.3885 0.000362321 0)
(58.3882 0.000365419 0)
(58.388 0.000366405 0)
(58.3877 0.000369033 0)
(58.3874 0.000372738 0)
(58.3871 0.000374241 0)
(58.3868 0.000374839 0)
(58.3865 0.000380604 0)
(58.3862 0.000395408 0)
(58.3859 0.000415367 0)
(58.3856 0.000431895 0)
(58.3853 0.000440089 0)
(58.385 0.000443459 0)
(58.3847 0.00044946 0)
(58.3844 0.000460645 0)
(58.3842 0.000471232 0)
(58.3839 0.000473048 0)
(58.3836 0.000465012 0)
(58.3833 0.000455497 0)
(58.3831 0.000454574 0)
(58.3828 0.000464393 0)
(58.3826 0.000477972 0)
(58.3823 0.000487236 0)
(58.3821 0.000490558 0)
(58.3819 0.000490906 0)
(58.3816 0.000487861 0)
(58.3814 0.000474724 0)
(58.3812 0.000445286 0)
(58.3809 0.000401594 0)
(58.3807 0.000351691 0)
(58.3805 0.000299514 0)
(58.3803 0.000240161 0)
(58.3801 0.000168038 0)
(58.3799 8.75266e-05 0)
(58.3797 1.16797e-05 0)
(58.3795 -5.05191e-05 0)
(58.3794 -0.000103102 0)
(58.3792 -0.000157546 0)
(58.3791 -0.000219638 0)
(58.379 -0.000283731 0)
(58.3789 -0.00033956 0)
(58.3788 -0.000382557 0)
(58.3787 -0.000416917 0)
(58.3786 -0.000449704 0)
(58.3785 -0.000483369 0)
(58.3784 -0.000512969 0)
(58.3784 -0.000529945 0)
(58.3783 -0.000529012 0)
(58.3782 -0.000512998 0)
(58.3781 -0.000491622 0)
(58.378 -0.00047426 0)
(58.3779 -0.00046304 0)
(58.3778 -0.000452223 0)
(58.3777 -0.000434955 0)
(58.3776 -0.000406841 0)
(58.3776 -0.000380198 0)
(58.3775 -0.000329562 0)
(45.998 -3.02272e-05 0)
(77.9555 -8.3264e-05 0)
(66.9805 -8.74399e-05 0)
(55.4485 -5.09756e-05 0)
(54.7324 6.89435e-06 0)
(57.8747 5.38037e-05 0)
(59.257 7.91585e-05 0)
(58.8513 0.000116176 0)
(58.29 0.00018129 0)
(58.1959 0.000192856 0)
(58.3257 0.000162245 0)
(58.4032 0.00013438 0)
(58.3945 0.000117961 0)
(58.3684 0.000121196 0)
(58.361 0.000126997 0)
(58.3659 0.000123988 0)
(58.3702 0.000131155 0)
(58.3703 0.000128957 0)
(58.3692 0.000124237 0)
(58.369 0.000150906 0)
(58.3693 0.000172372 0)
(58.3694 0.000153962 0)
(58.3695 0.000140493 0)
(58.3696 0.000148744 0)
(58.3696 0.000156856 0)
(58.3697 0.000159692 0)
(58.3698 0.000150626 0)
(58.3699 0.000132068 0)
(58.3701 0.000127525 0)
(58.3701 0.000125258 0)
(58.3701 0.000109075 0)
(58.3701 9.97275e-05 0)
(58.3701 0.00012468 0)
(58.3702 0.000180906 0)
(58.3701 0.000220152 0)
(58.37 0.000212107 0)
(58.37 0.000198299 0)
(58.3699 0.000220777 0)
(58.3699 0.000251802 0)
(58.3698 0.000247432 0)
(58.3697 0.000224813 0)
(58.3697 0.00023047 0)
(58.3698 0.000260859 0)
(58.3698 0.000269029 0)
(58.3698 0.000239483 0)
(58.3699 0.000206749 0)
(58.3699 0.000200739 0)
(58.37 0.000213625 0)
(58.37 0.000223418 0)
(58.3701 0.000221409 0)
(58.3701 0.000213202 0)
(58.3702 0.000207098 0)
(58.3703 0.000206008 0)
(58.3704 0.00020868 0)
(58.3705 0.000215545 0)
(58.3706 0.000227315 0)
(58.3707 0.000237464 0)
(58.3708 0.000234321 0)
(58.3709 0.000214958 0)
(58.371 0.000192502 0)
(58.3711 0.00018324 0)
(58.3712 0.000189686 0)
(58.3712 0.000202026 0)
(58.3713 0.000211221 0)
(58.3713 0.00021402 0)
(58.3713 0.000210313 0)
(58.3713 0.000204135 0)
(58.3713 0.000204479 0)
(58.3713 0.000217004 0)
(58.3713 0.00023468 0)
(58.3713 0.000242364 0)
(58.3713 0.000232757 0)
(58.3713 0.000214714 0)
(58.3712 0.000204058 0)
(58.3712 0.000208264 0)
(58.3713 0.000221516 0)
(58.3713 0.000232425 0)
(58.3713 0.000232893 0)
(58.3714 0.00022057 0)
(58.3714 0.000198689 0)
(58.3715 0.000176411 0)
(58.3716 0.000164772 0)
(58.3717 0.000166823 0)
(58.3718 0.000172646 0)
(58.3719 0.000168774 0)
(58.372 0.000153778 0)
(58.3721 0.000142068 0)
(58.3722 0.000150281 0)
(58.3722 0.000179653 0)
(58.3723 0.000212467 0)
(58.3723 0.000227808 0)
(58.3723 0.000221627 0)
(58.3723 0.000210747 0)
(58.3722 0.000215209 0)
(58.3722 0.00023763 0)
(58.3722 0.000262119 0)
(58.3721 0.000272675 0)
(58.3721 0.000268296 0)
(58.3721 0.00025897 0)
(58.372 0.000252177 0)
(58.372 0.000248363 0)
(58.3719 0.000246831 0)
(58.3719 0.000248605 0)
(58.3718 0.00025222 0)
(58.3718 0.000252953 0)
(58.3717 0.000250186 0)
(58.3717 0.000250886 0)
(58.3717 0.000260729 0)
(58.3717 0.000274842 0)
(58.3716 0.000283934 0)
(58.3716 0.000289231 0)
(58.3715 0.000303661 0)
(58.3715 0.000334018 0)
(58.3715 0.000367178 0)
(58.3715 0.000381101 0)
(58.3715 0.000369168 0)
(58.3714 0.000348532 0)
(58.3714 0.00034267 0)
(58.3714 0.000358672 0)
(58.3714 0.000383577 0)
(58.3714 0.00039944 0)
(58.3714 0.000398421 0)
(58.3714 0.000386497 0)
(58.3714 0.000377569 0)
(58.3714 0.000382494 0)
(58.3715 0.000399415 0)
(58.3715 0.000414369 0)
(58.3715 0.000414203 0)
(58.3716 0.000400636 0)
(58.3716 0.000389825 0)
(58.3717 0.000394859 0)
(58.3717 0.000410954 0)
(58.3718 0.000421777 0)
(58.3718 0.000418493 0)
(58.3718 0.000408277 0)
(58.3718 0.00040487 0)
(58.3718 0.000412604 0)
(58.3718 0.000423036 0)
(58.3719 0.000425933 0)
(58.3719 0.000419637 0)
(58.3719 0.000410365 0)
(58.3719 0.000405109 0)
(58.3719 0.000406135 0)
(58.372 0.000410279 0)
(58.372 0.000411837 0)
(58.3721 0.000407454 0)
(58.3721 0.00040026 0)
(58.3721 0.000398245 0)
(58.3721 0.000406403 0)
(58.3721 0.000420868 0)
(58.3721 0.000432251 0)
(58.3721 0.000432191 0)
(58.3721 0.000418358 0)
(58.3721 0.000394158 0)
(58.3721 0.000366424 0)
(58.3721 0.000344108 0)
(58.372 0.000334038 0)
(58.372 0.000336147 0)
(58.372 0.000342119 0)
(58.372 0.000341057 0)
(58.372 0.000329339 0)
(58.372 0.000313258 0)
(58.372 0.000300689 0)
(58.372 0.000291969 0)
(58.3721 0.000281216 0)
(58.3721 0.000265353 0)
(58.3721 0.000249139 0)
(58.3721 0.00024158 0)
(58.3722 0.000244936 0)
(58.3723 0.000250447 0)
(58.3723 0.000245697 0)
(58.3724 0.000226456 0)
(58.3725 0.000201808 0)
(58.3726 0.000187212 0)
(58.3728 0.000191364 0)
(58.3729 0.000207568 0)
(58.3731 0.000221728 0)
(58.3732 0.000224222 0)
(58.3734 0.000217393 0)
(58.3735 0.000215206 0)
(58.3737 0.000226929 0)
(58.3738 0.000246186 0)
(58.374 0.000256503 0)
(58.3741 0.000249744 0)
(58.3742 0.000234245 0)
(58.3743 0.000225398 0)
(58.3744 0.000230119 0)
(58.3745 0.000241915 0)
(58.3746 0.000250695 0)
(58.3747 0.000250184 0)
(58.3747 0.000243314 0)
(58.3748 0.000237487 0)
(58.3748 0.000235424 0)
(58.3749 0.000232409 0)
(58.3749 0.000223425 0)
(58.375 0.000209293 0)
(58.3751 0.00019531 0)
(58.3752 0.000184925 0)
(58.3753 0.000175714 0)
(58.3754 0.000162116 0)
(58.3755 0.00014361 0)
(58.3756 0.000127365 0)
(58.3757 0.000121066 0)
(58.3758 0.000123497 0)
(58.3759 0.000124122 0)
(58.376 0.000112606 0)
(58.3761 8.83564e-05 0)
(58.3762 6.00852e-05 0)
(58.3763 3.61542e-05 0)
(58.3764 1.62811e-05 0)
(58.3765 -6.94953e-06 0)
(58.3766 -3.85075e-05 0)
(58.3767 -7.38976e-05 0)
(58.3768 -0.000102565 0)
(58.3769 -0.000117817 0)
(58.3771 -0.000122158 0)
(58.3772 -0.000122356 0)
(58.3773 -0.000120815 0)
(58.3774 -0.000114268 0)
(58.3776 -0.000100686 0)
(58.3777 -8.39541e-05 0)
(58.3779 -6.88366e-05 0)
(58.378 -5.25353e-05 0)
(58.3781 -2.55313e-05 0)
(58.3782 1.74839e-05 0)
(58.3784 6.95227e-05 0)
(58.3785 0.000117624 0)
(58.3786 0.000156637 0)
(58.3786 0.000193358 0)
(58.3786 0.000236414 0)
(58.3787 0.000284492 0)
(58.3787 0.000326382 0)
(58.3786 0.000351788 0)
(58.3785 0.000360518 0)
(58.3785 0.000361401 0)
(58.3784 0.000363847 0)
(58.3783 0.000370638 0)
(58.3782 0.00037666 0)
(58.3781 0.000373991 0)
(58.3779 0.000359146 0)
(58.3778 0.000337209 0)
(58.3777 0.000319283 0)
(58.3776 0.000313815 0)
(58.3775 0.000318837 0)
(58.3774 0.000323968 0)
(58.3773 0.000318463 0)
(58.3772 0.00030031 0)
(58.3771 0.0002731 0)
(58.377 0.000259686 0)
(58.3769 0.000227525 0)
(45.998 2.07725e-05 0)
(77.9557 9.63802e-05 0)
(66.9802 0.000162821 0)
(55.4481 0.0002105 0)
(54.7321 0.000238829 0)
(57.8744 0.000279396 0)
(59.2569 0.000336589 0)
(58.8513 0.000369641 0)
(58.2903 0.000375069 0)
(58.1964 0.000376528 0)
(58.3264 0.000384174 0)
(58.4039 0.000388564 0)
(58.3949 0.000371078 0)
(58.3686 0.000349395 0)
(58.3612 0.000337162 0)
(58.366 0.000323444 0)
(58.3701 0.000337888 0)
(58.3702 0.000352745 0)
(58.369 0.000333512 0)
(58.3685 0.000325861 0)
(58.3687 0.000352721 0)
(58.3689 0.000359374 0)
(58.369 0.000333546 0)
(58.369 0.000325135 0)
(58.3689 0.000323604 0)
(58.369 0.000326416 0)
(58.369 0.000337978 0)
(58.3689 0.000346889 0)
(58.3688 0.000372572 0)
(58.3689 0.000417801 0)
(58.3688 0.000455508 0)
(58.3688 0.000463974 0)
(58.3687 0.000452229 0)
(58.3687 0.000457915 0)
(58.3688 0.000483062 0)
(58.3689 0.00048441 0)
(58.3689 0.000452182 0)
(58.3691 0.000424715 0)
(58.3693 0.000419646 0)
(58.3694 0.000409876 0)
(58.3695 0.000375756 0)
(58.3696 0.000337199 0)
(58.3696 0.000318326 0)
(58.3697 0.000312669 0)
(58.3697 0.00030376 0)
(58.3697 0.000293257 0)
(58.3697 0.000289734 0)
(58.3697 0.000290517 0)
(58.3697 0.000287781 0)
(58.3697 0.000278373 0)
(58.3698 0.000263393 0)
(58.3698 0.00024861 0)
(58.3698 0.000242358 0)
(58.3698 0.000246385 0)
(58.3698 0.000252976 0)
(58.3697 0.000255529 0)
(58.3697 0.000255757 0)
(58.3697 0.000256839 0)
(58.3697 0.000258183 0)
(58.3696 0.000261468 0)
(58.3696 0.000272973 0)
(58.3696 0.000293177 0)
(58.3696 0.0003115 0)
(58.3696 0.00031896 0)
(58.3696 0.000320311 0)
(58.3696 0.000326513 0)
(58.3697 0.000339212 0)
(58.3697 0.000349719 0)
(58.3698 0.000352378 0)
(58.3699 0.000353148 0)
(58.37 0.000361846 0)
(58.37 0.000377611 0)
(58.3701 0.00038623 0)
(58.3702 0.000374159 0)
(58.3702 0.000343762 0)
(58.3703 0.000312417 0)
(58.3703 0.000296634 0)
(58.3703 0.000298279 0)
(58.3704 0.00030567 0)
(58.3704 0.00030623 0)
(58.3704 0.000297984 0)
(58.3705 0.00028991 0)
(58.3705 0.000291458 0)
(58.3705 0.000302106 0)
(58.3705 0.000312254 0)
(58.3705 0.000314111 0)
(58.3705 0.000309996 0)
(58.3705 0.000309369 0)
(58.3705 0.000318746 0)
(58.3705 0.00033509 0)
(58.3706 0.000348583 0)
(58.3706 0.000351961 0)
(58.3707 0.000347669 0)
(58.3708 0.000345577 0)
(58.3709 0.000353083 0)
(58.371 0.000368039 0)
(58.3711 0.000382316 0)
(58.3713 0.00039108 0)
(58.3714 0.000396083 0)
(58.3716 0.00040003 0)
(58.3717 0.000401696 0)
(58.3718 0.000399052 0)
(58.3719 0.000394208 0)
(58.3721 0.000391008 0)
(58.3722 0.000388364 0)
(58.3722 0.000380548 0)
(58.3723 0.000365633 0)
(58.3724 0.000349787 0)
(58.3725 0.000340244 0)
(58.3726 0.000336419 0)
(58.3727 0.000331656 0)
(58.3727 0.000322693 0)
(58.3727 0.000312967 0)
(58.3728 0.000305389 0)
(58.3729 0.000296218 0)
(58.373 0.000280124 0)
(58.373 0.000259583 0)
(58.373 0.000244802 0)
(58.3731 0.000243237 0)
(58.3731 0.000251569 0)
(58.3731 0.000258825 0)
(58.3732 0.000255342 0)
(58.3732 0.000238513 0)
(58.3732 0.000213525 0)
(58.3732 0.000190968 0)
(58.3732 0.000180869 0)
(58.3732 0.000184396 0)
(58.3733 0.000190554 0)
(58.3733 0.000184521 0)
(58.3733 0.00016231 0)
(58.3733 0.00013619 0)
(58.3734 0.000123665 0)
(58.3734 0.000131347 0)
(58.3735 0.000150241 0)
(58.3735 0.000165601 0)
(58.3735 0.000169638 0)
(58.3736 0.000164522 0)
(58.3736 0.000156726 0)
(58.3736 0.000151386 0)
(58.3736 0.000150335 0)
(58.3737 0.000151984 0)
(58.3737 0.000152538 0)
(58.3737 0.000149127 0)
(58.3738 0.000142884 0)
(58.3738 0.000138415 0)
(58.3739 0.000139787 0)
(58.3739 0.000147533 0)
(58.374 0.000159447 0)
(58.374 0.000172936 0)
(58.3741 0.000185668 0)
(58.3741 0.000195197 0)
(58.3742 0.000199537 0)
(58.3743 0.000198729 0)
(58.3743 0.000194513 0)
(58.3744 0.000188714 0)
(58.3745 0.000183503 0)
(58.3745 0.000182937 0)
(58.3746 0.000191754 0)
(58.3746 0.000209948 0)
(58.3747 0.00022936 0)
(58.3747 0.000239074 0)
(58.3747 0.000235423 0)
(58.3747 0.000225198 0)
(58.3747 0.000218019 0)
(58.3748 0.000216591 0)
(58.3748 0.000215471 0)
(58.3748 0.000208536 0)
(58.3748 0.000195899 0)
(58.3747 0.000182528 0)
(58.3747 0.000172302 0)
(58.3747 0.000164449 0)
(58.3747 0.000154511 0)
(58.3746 0.000138363 0)
(58.3746 0.000116424 0)
(58.3745 9.51254e-05 0)
(58.3745 8.33421e-05 0)
(58.3744 8.55952e-05 0)
(58.3743 9.73726e-05 0)
(58.3742 0.000109006 0)
(58.3742 0.000115395 0)
(58.3741 0.000119773 0)
(58.374 0.000128975 0)
(58.374 0.000145665 0)
(58.3739 0.000165246 0)
(58.3739 0.000179977 0)
(58.3738 0.00018634 0)
(58.3738 0.000188393 0)
(58.3738 0.00019366 0)
(58.3738 0.000205884 0)
(58.3738 0.000221403 0)
(58.3738 0.000233806 0)
(58.3738 0.000240222 0)
(58.3737 0.000242301 0)
(58.3737 0.000242162 0)
(58.3737 0.00023865 0)
(58.3737 0.000228596 0)
(58.3736 0.000212244 0)
(58.3736 0.000195689 0)
(58.3735 0.000186012 0)
(58.3735 0.000184481 0)
(58.3734 0.000186496 0)
(58.3734 0.000188125 0)
(58.3733 0.000191253 0)
(58.3732 0.000201243 0)
(58.3732 0.000219736 0)
(58.3731 0.000240879 0)
(58.373 0.000255599 0)
(58.3729 0.000259676 0)
(58.3728 0.000257113 0)
(58.3727 0.000255338 0)
(58.3726 0.000257527 0)
(58.3725 0.000260534 0)
(58.3724 0.000259958 0)
(58.3723 0.000255873 0)
(58.3721 0.000252333 0)
(58.372 0.000251235 0)
(58.3718 0.000248537 0)
(58.3716 0.000238241 0)
(58.3714 0.000218989 0)
(58.3711 0.000194464 0)
(58.3709 0.000166863 0)
(58.3707 0.00013262 0)
(58.3705 8.7355e-05 0)
(58.3703 3.42918e-05 0)
(58.3701 -1.52491e-05 0)
(58.3699 -5.18916e-05 0)
(58.3698 -7.6867e-05 0)
(58.3697 -9.8975e-05 0)
(58.3696 -0.000124103 0)
(58.3696 -0.000149537 0)
(58.3696 -0.000168734 0)
(58.3696 -0.000179646 0)
(58.3697 -0.000187237 0)
(58.3698 -0.000198713 0)
(58.37 -0.000217282 0)
(58.3701 -0.000239874 0)
(58.3703 -0.000259655 0)
(58.3705 -0.000270622 0)
(58.3707 -0.000271581 0)
(58.371 -0.000266919 0)
(58.3712 -0.000263347 0)
(58.3714 -0.000264467 0)
(58.3716 -0.000267586 0)
(58.3718 -0.000266239 0)
(58.372 -0.000256061 0)
(58.3723 -0.000238187 0)
(58.3725 -0.000218517 0)
(58.3727 -0.000201431 0)
(58.3729 -0.000194193 0)
(58.3732 -0.000182087 0)
(45.998 1.45028e-05 0)
(77.9561 0.000111443 0)
(66.9809 0.000196896 0)
(55.4487 0.000192367 0)
(54.7323 0.000146659 0)
(57.8747 0.000104286 0)
(59.2571 0.000109823 0)
(58.8514 0.000102757 0)
(58.29 7.42993e-05 0)
(58.1958 7.55855e-05 0)
(58.3256 9.22257e-05 0)
(58.4031 0.000119628 0)
(58.3944 0.000155504 0)
(58.3681 0.00017742 0)
(58.3608 0.000193125 0)
(58.3656 0.00018406 0)
(58.3698 0.000170982 0)
(58.37 0.000176433 0)
(58.3687 0.000165606 0)
(58.3683 0.000144539 0)
(58.3685 0.000146678 0)
(58.3688 0.000157041 0)
(58.3687 0.000144595 0)
(58.3687 0.00013808 0)
(58.3686 0.000145591 0)
(58.3686 0.000161177 0)
(58.3687 0.000195436 0)
(58.3688 0.000224387 0)
(58.3688 0.000227715 0)
(58.369 0.000223568 0)
(58.3692 0.000224382 0)
(58.3693 0.000209458 0)
(58.3694 0.00015759 0)
(58.3696 9.32911e-05 0)
(58.3697 6.27957e-05 0)
(58.3698 6.52992e-05 0)
(58.3698 5.74433e-05 0)
(58.3698 2.85222e-05 0)
(58.3697 1.81456e-05 0)
(58.3697 4.75159e-05 0)
(58.3697 8.56481e-05 0)
(58.3696 0.000104994 0)
(58.3696 0.000120192 0)
(58.3696 0.000149956 0)
(58.3696 0.000182801 0)
(58.3696 0.00020028 0)
(58.3696 0.000203284 0)
(58.3696 0.000202031 0)
(58.3696 0.000201489 0)
(58.3696 0.000203322 0)
(58.3696 0.000208493 0)
(58.3695 0.000215687 0)
(58.3695 0.000223174 0)
(58.3696 0.000230405 0)
(58.3696 0.00023591 0)
(58.3697 0.00023846 0)
(58.3698 0.000240664 0)
(58.3698 0.000246991 0)
(58.3699 0.000257131 0)
(58.3699 0.000265413 0)
(58.37 0.000266517 0)
(58.37 0.000257048 0)
(58.3701 0.000233955 0)
(58.3701 0.000199518 0)
(58.3702 0.000166253 0)
(58.3702 0.000147483 0)
(58.3702 0.000141531 0)
(58.3702 0.000132371 0)
(58.3702 0.000108827 0)
(58.3702 7.90045e-05 0)
(58.3702 6.28055e-05 0)
(58.3702 7.18324e-05 0)
(58.3702 9.93302e-05 0)
(58.3702 0.000129213 0)
(58.3702 0.000151345 0)
(58.3702 0.000166096 0)
(58.3702 0.000177255 0)
(58.3702 0.000185816 0)
(58.3702 0.000191281 0)
(58.3703 0.000194757 0)
(58.3703 0.000197884 0)
(58.3703 0.000200153 0)
(58.3703 0.000199415 0)
(58.3704 0.000194789 0)
(58.3704 0.000188032 0)
(58.3705 0.000181728 0)
(58.3706 0.000176024 0)
(58.3707 0.000167392 0)
(58.3707 0.000151696 0)
(58.3708 0.000128809 0)
(58.3709 0.000103278 0)
(58.371 8.01307e-05 0)
(58.3711 6.1075e-05 0)
(58.3712 4.52132e-05 0)
(58.3712 3.15774e-05 0)
(58.3713 1.94312e-05 0)
(58.3714 7.49647e-06 0)
(58.3714 -4.25972e-06 0)
(58.3715 -1.23453e-05 0)
(58.3716 -1.22319e-05 0)
(58.3717 -3.9278e-06 0)
(58.3717 7.35212e-06 0)
(58.3718 1.76407e-05 0)
(58.3719 2.87171e-05 0)
(58.3719 4.33897e-05 0)
(58.372 5.85986e-05 0)
(58.372 6.80195e-05 0)
(58.3721 7.20689e-05 0)
(58.3721 8.06909e-05 0)
(58.3721 0.000102732 0)
(58.3722 0.000134453 0)
(58.3722 0.000162098 0)
(58.3721 0.000175672 0)
(58.3721 0.000177445 0)
(58.3721 0.000176951 0)
(58.3721 0.000181311 0)
(58.3721 0.000192225 0)
(58.3721 0.000208916 0)
(58.3721 0.000229503 0)
(58.3721 0.000249799 0)
(58.3721 0.000264738 0)
(58.3722 0.000272522 0)
(58.3722 0.000275633 0)
(58.3723 0.000277266 0)
(58.3723 0.000278798 0)
(58.3723 0.000281245 0)
(58.3723 0.000286312 0)
(58.3724 0.00029342 0)
(58.3724 0.000297052 0)
(58.3724 0.000290955 0)
(58.3724 0.000276452 0)
(58.3724 0.000264179 0)
(58.3724 0.000265124 0)
(58.3724 0.000280148 0)
(58.3724 0.000299479 0)
(58.3724 0.000312156 0)
(58.3724 0.000314557 0)
(58.3724 0.000310525 0)
(58.3724 0.000306139 0)
(58.3724 0.000305478 0)
(58.3724 0.00030898 0)
(58.3724 0.000313283 0)
(58.3724 0.000313031 0)
(58.3724 0.000305054 0)
(58.3725 0.000291665 0)
(58.3725 0.000279229 0)
(58.3725 0.000273147 0)
(58.3725 0.000274296 0)
(58.3725 0.000279426 0)
(58.3726 0.000283475 0)
(58.3726 0.000281605 0)
(58.3726 0.000271225 0)
(58.3727 0.000254206 0)
(58.3727 0.000236662 0)
(58.3728 0.000224792 0)
(58.3729 0.000220403 0)
(58.373 0.00022135 0)
(58.373 0.000226018 0)
(58.3731 0.000235087 0)
(58.3731 0.000247705 0)
(58.3732 0.000258064 0)
(58.3733 0.000258917 0)
(58.3734 0.000249207 0)
(58.3735 0.000236558 0)
(58.3735 0.000230995 0)
(58.3736 0.000236477 0)
(58.3737 0.000248796 0)
(58.3737 0.000260741 0)
(58.3738 0.000268281 0)
(58.3738 0.00027255 0)
(58.3738 0.00027738 0)
(58.3739 0.000285443 0)
(58.3739 0.000296012 0)
(58.3739 0.000305975 0)
(58.374 0.000313316 0)
(58.374 0.000319922 0)
(58.374 0.000330368 0)
(58.374 0.000346723 0)
(58.3741 0.000364568 0)
(58.3741 0.000375452 0)
(58.3742 0.000373801 0)
(58.3742 0.000361206 0)
(58.3743 0.00034381 0)
(58.3743 0.000326446 0)
(58.3744 0.000309648 0)
(58.3745 0.00029178 0)
(58.3746 0.000273133 0)
(58.3747 0.000257434 0)
(58.3747 0.000249279 0)
(58.3748 0.00024986 0)
(58.3749 0.000255732 0)
(58.375 0.000261999 0)
(58.3751 0.000266524 0)
(58.3752 0.000270419 0)
(58.3753 0.000274585 0)
(58.3754 0.000276812 0)
(58.3754 0.000273605 0)
(58.3755 0.000264978 0)
(58.3756 0.000256111 0)
(58.3757 0.000253038 0)
(58.3759 0.000256795 0)
(58.376 0.000262601 0)
(58.3761 0.00026498 0)
(58.3762 0.000262916 0)
(58.3764 0.000259507 0)
(58.3765 0.000256954 0)
(58.3767 0.000252805 0)
(58.3769 0.000241961 0)
(58.3771 0.000222513 0)
(58.3773 0.000199168 0)
(58.3775 0.000180341 0)
(58.3777 0.000171689 0)
(58.3779 0.000173166 0)
(58.3782 0.00018227 0)
(58.3784 0.000198681 0)
(58.3786 0.000224186 0)