/*--------------------------------*- C++ -*----------------------------------*\
| =========                 |                                                 |
| \\      /  F ield         | OpenFOAM: The Open Source CFD Toolbox           |
|  \\    /   O peration     | Version:  2406                                  |
|   \\  /    A nd           | Website:  www.openfoam.com                      |
|    \\/     M anipulation  |                                                 |
\*---------------------------------------------------------------------------*/
FoamFile
{
    version     2.0;
    format      ascii;
    arch        "LSB;label=32;scalar=64";
    class       volScalarField;
    location    "600";
    object      alphat;
}
// * * * * * * * * * * * * * * * * * * * * * * * * * * * * * * * * * * * * * //

dimensions      [0 2 -1 0 0 0 0];

internalField   nonuniform List<scalar> 
5619
(
5.84328e-05
5.95622e-05
6.07195e-05
6.19359e-05
6.32022e-05
6.45294e-05
6.5923e-05
6.73878e-05
6.89266e-05
7.05406e-05
7.22297e-05
7.39926e-05
7.58275e-05
7.77317e-05
7.9702e-05
8.17343e-05
8.38241e-05
8.59657e-05
8.81524e-05
9.03763e-05
9.26286e-05
9.48988e-05
9.71755e-05
9.94459e-05
0.000101697
0.000103913
0.000106081
0.000108187
0.000110218
0.000112164
0.000114018
0.000115776
0.00011744
0.000119017
0.000120519
0.000121961
0.00012336
0.000124736
0.000126104
0.00012748
0.000128871
0.000130283
0.000131714
0.00013316
0.000134611
0.000136057
0.000137488
0.000138894
0.000140266
0.000141602
0.000142903
0.000144182
0.000145362
0.000146421
0.000147334
0.000148073
0.000148602
0.00014888
0.000148852
0.000148449
0.000147581
0.000146129
0.000143937
0.000140797
0.000136427
0.000130453
0.000122382
0.000111608
9.75127e-05
7.98988e-05
6.02586e-05
4.41517e-05
3.92917e-05
4.02879e-05
4.04489e-05
4.04633e-05
4.04458e-05
4.0401e-05
4.03322e-05
4.02418e-05
4.0132e-05
4.00048e-05
3.98619e-05
3.9705e-05
3.95356e-05
3.93548e-05
3.91639e-05
3.89637e-05
3.87551e-05
3.85388e-05
3.83151e-05
3.80845e-05
3.78547e-05
3.76256e-05
3.73975e-05
3.71706e-05
3.69448e-05
3.67202e-05
3.64966e-05
3.62742e-05
3.60528e-05
3.58083e-05
3.55398e-05
3.52471e-05
3.49303e-05
3.45904e-05
3.4229e-05
3.38485e-05
3.34518e-05
3.30426e-05
3.26251e-05
3.22038e-05
3.17832e-05
3.13678e-05
3.09618e-05
3.05689e-05
3.01922e-05
2.98344e-05
2.94972e-05
2.91819e-05
2.88892e-05
2.86193e-05
2.8372e-05
2.81466e-05
2.79424e-05
2.77582e-05
2.75929e-05
2.74451e-05
2.73137e-05
2.71845e-05
2.70568e-05
2.69299e-05
2.68033e-05
2.66763e-05
2.65485e-05
2.64194e-05
2.62885e-05
2.61555e-05
2.60198e-05
2.58813e-05
2.57396e-05
2.55945e-05
2.54458e-05
2.52934e-05
2.51372e-05
2.49773e-05
2.48138e-05
2.46468e-05
2.44768e-05
2.43041e-05
2.41293e-05
2.3953e-05
2.3776e-05
2.35993e-05
2.34238e-05
2.32508e-05
2.30815e-05
2.29173e-05
2.27595e-05
2.26096e-05
2.24689e-05
2.23387e-05
2.22203e-05
2.21146e-05
2.20225e-05
2.19443e-05
2.18804e-05
2.18306e-05
2.17945e-05
2.17714e-05
2.17603e-05
2.17601e-05
2.17699e-05
2.17883e-05
2.18144e-05
2.18479e-05
2.18905e-05
2.19474e-05
2.20294e-05
2.21557e-05
2.23558e-05
2.26663e-05
2.31177e-05
2.37046e-05
2.43128e-05
2.45255e-05
2.30393e-05
0.000256322
0.000269723
0.000285303
0.000301579
0.000318681
0.00033654
0.000355164
0.000374539
0.000394654
0.000415485
0.000436997
0.000459147
0.000481878
0.000505124
0.000528809
0.000552844
0.000577132
0.000601562
0.000626015
0.000650359
0.000674448
0.000698129
0.000721237
0.000743597
0.000765029
0.000785349
0.000804371
0.000821917
0.000837819
0.000851933
0.000864143
0.000874383
0.000882645
0.000888996
0.000893591
0.000896681
0.000898611
0.000899807
0.000900752
0.000901958
0.000903927
0.000907122
0.00091194
0.000918692
0.000927603
0.000938806
0.000952345
0.000968183
0.000986202
0.00100621
0.00102791
0.00105096
0.00107616
0.0011032
0.00113192
0.00116215
0.00119366
0.0012262
0.00125939
0.00129274
0.0013256
0.00135705
0.00138583
0.00141013
0.00142732
0.00143342
0.00142229
0.00138415
0.00130343
0.00115663
0.000916021
0.000578637
0.000235004
5.45053e-05
2.47076e-05
2.2915e-05
2.29333e-05
2.30786e-05
2.32593e-05
2.34649e-05
2.36931e-05
2.39412e-05
2.42054e-05
2.44806e-05
2.47619e-05
2.50439e-05
2.53218e-05
2.55905e-05
2.58451e-05
2.6081e-05
2.6293e-05
2.64743e-05
2.6645e-05
2.68181e-05
2.69932e-05
2.71701e-05
2.73486e-05
2.75285e-05
2.77098e-05
2.78924e-05
2.80767e-05
2.82824e-05
2.85111e-05
2.87642e-05
2.9043e-05
2.93485e-05
2.96817e-05
3.00428e-05
3.0432e-05
3.08488e-05
3.12918e-05
3.17592e-05
3.22481e-05
3.27546e-05
3.32742e-05
3.38015e-05
3.43309e-05
3.48564e-05
3.53721e-05
3.58727e-05
3.63533e-05
3.681e-05
3.72398e-05
3.76404e-05
3.80107e-05
3.83502e-05
3.86594e-05
3.89389e-05
3.91904e-05
3.94406e-05
3.96906e-05
3.99415e-05
4.01946e-05
4.04508e-05
4.07113e-05
4.09772e-05
4.12496e-05
4.15293e-05
4.18175e-05
4.21151e-05
4.2423e-05
4.2742e-05
4.30728e-05
4.3416e-05
4.37721e-05
4.41415e-05
4.4524e-05
4.49197e-05
4.53279e-05
4.57478e-05
4.61782e-05
4.66172e-05
4.70627e-05
4.75119e-05
4.79613e-05
4.84068e-05
4.88439e-05
4.92672e-05
4.9671e-05
5.0049e-05
5.03946e-05
5.0701e-05
5.09611e-05
5.11682e-05
5.13155e-05
5.13961e-05
5.14032e-05
5.13298e-05
5.11677e-05
5.09071e-05
5.05354e-05
5.0035e-05
4.94158e-05
4.86802e-05
4.77835e-05
4.66689e-05
4.52647e-05
4.34884e-05
4.12612e-05
3.8542e-05
3.53841e-05
3.2005e-05
2.88365e-05
2.65327e-05
2.60331e-05
2.91792e-05
4.27104e-05
0.000695072
0.000734807
0.00077966
0.000825858
0.000873613
0.000922739
0.000973253
0.00102514
0.00107839
0.00113298
0.00118888
0.001246
0.00130428
0.00136359
0.0014238
0.00148476
0.00154629
0.00160819
0.00167023
0.00173217
0.00179372
0.00185457
0.00191438
0.00197277
0.00202933
0.00208364
0.00213522
0.00218359
0.00222829
0.00226883
0.00230481
0.00233588
0.00236186
0.00238271
0.00239863
0.00241007
0.00241774
0.00242259
0.00242575
0.00242848
0.00243204
0.00243763
0.0024463
0.00245889
0.00247604
0.00249813
0.00252533
0.00255759
0.00259471
0.00263634
0.00268207
0.00273144
0.00278598
0.00284414
0.00290525
0.00296864
0.0030335
0.00309882
0.00316329
0.00322525
0.00328249
0.00333213
0.00337033
0.00339191
0.00338985
0.00335457
0.00327298
0.00312765
0.0028966
0.00255644
0.00209345
0.0015273
0.000935074
0.00044159
0.000155182
6.22691e-05
5.01822e-05
5.077e-05
5.27986e-05
5.49803e-05
5.71382e-05
5.92045e-05
6.11441e-05
6.29328e-05
6.45523e-05
6.59897e-05
6.72363e-05
6.82883e-05
6.91468e-05
6.98017e-05
7.02586e-05
7.06481e-05
7.0979e-05
7.12546e-05
7.14769e-05
7.16478e-05
7.1769e-05
7.18422e-05
7.18691e-05
7.18505e-05
7.17891e-05
7.16624e-05
7.14608e-05
7.11789e-05
7.08125e-05
7.03618e-05
6.98314e-05
6.92309e-05
6.85754e-05
6.78841e-05
6.7179e-05
6.64828e-05
6.5817e-05
6.51997e-05
6.46443e-05
6.4159e-05
6.37471e-05
6.34074e-05
6.3135e-05
6.29233e-05
6.27639e-05
6.26485e-05
6.25688e-05
6.25172e-05
6.24874e-05
6.24737e-05
6.2472e-05
6.24781e-05
6.24898e-05
6.25065e-05
6.25279e-05
6.25544e-05
6.2586e-05
6.26231e-05
6.2666e-05
6.27152e-05
6.27713e-05
6.28347e-05
6.29063e-05
6.29867e-05
6.30767e-05
6.3177e-05
6.32884e-05
6.34118e-05
6.35476e-05
6.36965e-05
6.38587e-05
6.40345e-05
6.42234e-05
6.44249e-05
6.46377e-05
6.48601e-05
6.50893e-05
6.53221e-05
6.55539e-05
6.57793e-05
6.59917e-05
6.61832e-05
6.63449e-05
6.64668e-05
6.65377e-05
6.6546e-05
6.64791e-05
6.63245e-05
6.60694e-05
6.57016e-05
6.52094e-05
6.4582e-05
6.381e-05
6.28855e-05
6.18028e-05
6.05625e-05
5.92334e-05
5.78159e-05
5.63211e-05
5.47764e-05
5.32357e-05
5.17911e-05
5.05892e-05
4.98496e-05
4.98834e-05
5.11201e-05
5.4172e-05
6.00493e-05
7.08366e-05
9.19077e-05
0.000143291
0.0013862
0.00145597
0.00153386
0.00161331
0.00169471
0.00177784
0.00186283
0.00194975
0.00203869
0.00212967
0.00222269
0.00231769
0.00241457
0.00251319
0.0026134
0.00271498
0.00281771
0.0029213
0.00302544
0.00312977
0.00323389
0.00333733
0.00343955
0.00353998
0.00363795
0.00373274
0.00382357
0.00390962
0.00399002
0.00406396
0.00413066
0.0041895
0.00424006
0.0042822
0.00431614
0.00434248
0.00436225
0.00437682
0.00438787
0.00439725
0.00440686
0.00441852
0.00443387
0.00445426
0.00448071
0.00451391
0.00455419
0.00460156
0.00465577
0.00471634
0.00478264
0.00485389
0.00493174
0.00501297
0.00509573
0.0051783
0.00525871
0.00533465
0.00540329
0.00546118
0.00550405
0.00552667
0.00552254
0.00548365
0.00540023
0.00526064
0.00505156
0.00475917
0.00437169
0.00388403
0.00330373
0.00265476
0.00197565
0.00131701
0.000748572
0.000355431
0.000178372
0.000161829
0.00017452
0.000181257
0.000185809
0.000189475
0.000192615
0.000195302
0.000197561
0.000199418
0.000200902
0.000202042
0.000202863
0.000203328
0.000203576
0.000203622
0.000203472
0.00020313
0.000202599
0.000201883
0.000200985
0.000199908
0.000198654
0.000197221
0.000195613
0.000193586
0.000191088
0.000188091
0.000184577
0.000180549
0.000176034
0.000171088
0.000165793
0.000160256
0.0001546
0.000148955
0.000143442
0.00013817
0.000133224
0.000128663
0.000124518
0.0001208
0.000117499
0.000114592
0.000112048
0.000109833
0.00010791
0.000106245
0.000104804
0.000103558
0.000102481
0.000101548
0.000100739
9.9961e-05
9.92052e-05
9.84688e-05
9.77483e-05
9.7041e-05
9.63444e-05
9.56568e-05
9.49768e-05
9.43035e-05
9.36364e-05
9.29756e-05
9.23214e-05
9.16746e-05
9.10362e-05
9.04078e-05
8.97911e-05
8.9188e-05
8.86006e-05
8.8031e-05
8.74814e-05
8.69536e-05
8.64493e-05
8.59697e-05
8.55155e-05
8.50868e-05
8.46827e-05
8.43016e-05
8.3941e-05
8.35975e-05
8.32669e-05
8.29445e-05
8.26254e-05
8.2305e-05
8.19795e-05
8.16467e-05
8.13068e-05
8.0963e-05
8.06228e-05
8.02986e-05
8.00087e-05
7.97778e-05
7.96381e-05
7.96823e-05
8.00146e-05
8.07075e-05
8.18609e-05
8.36045e-05
8.61041e-05
8.95681e-05
9.42536e-05
0.000100474
0.000108622
0.000119227
0.000133139
0.000151977
0.000179251
0.000223395
0.000309453
0.00227224
0.00237118
0.00248112
0.00259283
0.00270687
0.00282311
0.00294184
0.00306328
0.0031876
0.0033149
0.00344521
0.00357848
0.0037146
0.00385341
0.0039947
0.00413822
0.00428368
0.00443072
0.00457894
0.00472788
0.00487698
0.00502562
0.00517308
0.00531855
0.00546111
0.00559976
0.0057334
0.00586087
0.005981
0.00609265
0.00619476
0.00628649
0.00636725
0.00643682
0.00649541
0.0065437
0.00658281
0.0066143
0.00664006
0.00666219
0.00668288
0.00670424
0.00672825
0.00675656
0.0067905
0.00683099
0.00687851
0.00693313
0.00699453
0.00706195
0.00713429
0.00720999
0.00729023
0.0073713
0.00744949
0.00752177
0.00758496
0.00763551
0.00766929
0.0076816
0.00766697
0.00761921
0.00753135
0.00739578
0.00720454
0.00694997
0.00662568
0.00622794
0.00575729
0.0052196
0.00462572
0.00398924
0.00332366
0.00264238
0.00196421
0.00132468
0.00078595
0.000420553
0.000258577
0.000275065
0.000358544
0.000400668
0.000417012
0.0004235
0.000426778
0.000429096
0.000430991
0.000432573
0.000433853
0.000434821
0.000435493
0.000435864
0.000435928
0.000435678
0.000435105
0.000434202
0.000432958
0.000431365
0.000429411
0.000427075
0.000424341
0.000420751
0.000416138
0.000410401
0.000403449
0.000395229
0.000385738
0.000375036
0.000363253
0.000350591
0.000337312
0.000323715
0.000310115
0.00029681
0.00028406
0.000272066
0.000260969
0.000250846
0.000241722
0.000233578
0.000226363
0.00022001
0.000214441
0.000209572
0.000205324
0.000201624
0.000198404
0.000195596
0.000193145
0.000190773
0.000188454
0.000186177
0.000183931
0.000181709
0.000179502
0.000177304
0.000175111
0.000172921
0.00017073
0.000168538
0.000166347
0.000164158
0.000161975
0.000159802
0.000157645
0.000155512
0.00015341
0.000151347
0.000149335
0.000147383
0.000145502
0.000143703
0.000141997
0.000140397
0.000138914
0.000137558
0.000136343
0.000135278
0.000134376
0.000133649
0.00013311
0.000132771
0.000132649
0.000132759
0.000133122
0.000133758
0.000134693
0.000135953
0.000137571
0.00013958
0.000142022
0.000145027
0.000148815
0.000153416
0.000158918
0.000165433
0.000173091
0.00018205
0.00019251
0.000204742
0.00021915
0.00023638
0.000257531
0.00028452
0.000320754
0.000372205
0.000448375
0.00328243
0.00340878
0.0035488
0.00369104
0.00383615
0.00398413
0.00413546
0.00429047
0.00444944
0.00461252
0.00477975
0.00495107
0.00512638
0.00530546
0.00548808
0.00567393
0.00586265
0.00605382
0.00624695
0.00644146
0.00663667
0.0068318
0.00702595
0.00721809
0.0074071
0.00759171
0.00777057
0.00794228
0.00810542
0.00825861
0.00840062
0.00853041
0.00864726
0.00875079
0.00884106
0.00891856
0.00898423
0.00903938
0.00908565
0.00912491
0.00915916
0.0091904
0.00922053
0.00925126
0.00928401
0.00931984
0.0093594
0.00940287
0.00944995
0.00949987
0.00955134
0.00960266
0.00965178
0.00969965
0.00973994
0.00976877
0.00978246
0.00977714
0.00974866
0.00969249
0.00960381
0.00947759
0.00930882
0.00909275
0.00882539
0.00850397
0.00812749
0.00769716
0.00721653
0.00669111
0.0061275
0.00553216
0.00491053
0.00426678
0.00360476
0.00293053
0.00225759
0.00161532
0.00105581
0.000642581
0.000414029
0.000365356
0.000458583
0.000575129
0.000628219
0.000649758
0.000658314
0.000662122
0.000664402
0.000666366
0.000668247
0.000670011
0.0006716
0.000672962
0.000674052
0.000674828
0.000675249
0.000675275
0.000674864
0.000673954
0.0006725
0.00067007
0.000666371
0.000661189
0.000654304
0.000645521
0.000634703
0.000621798
0.00060687
0.000590111
0.000571843
0.000552497
0.000532569
0.000512569
0.000492977
0.000474196
0.000456537
0.000440205
0.000425313
0.000411889
0.000399904
0.000389282
0.000379921
0.000371708
0.000364522
0.000358248
0.000352782
0.000348007
0.000343822
0.000339776
0.000335805
0.000331888
0.000328004
0.00032414
0.00032028
0.000316415
0.000312535
0.000308637
0.000304715
0.00030077
0.000296804
0.000292821
0.000288829
0.000284837
0.000280858
0.000276907
0.000272999
0.000269155
0.000265394
0.000261739
0.000258213
0.000254841
0.000251647
0.000248656
0.000245894
0.000243386
0.000241157
0.000239229
0.000237627
0.000236373
0.000235488
0.000234995
0.000234913
0.000235262
0.000236061
0.00023733
0.000239089
0.000241356
0.000244154
0.000247506
0.000251441
0.000255998
0.00026141
0.000267713
0.000274919
0.000283094
0.000292332
0.000302764
0.000314576
0.000328034
0.000343516
0.000361563
0.000382928
0.000408608
0.000439731
0.000476896
0.000517956
0.00434532
0.00449733
0.00466544
0.00483652
0.00501118
0.00518959
0.00537236
0.00555992
0.00575261
0.00595061
0.00615398
0.00636265
0.00657648
0.00679524
0.00701866
0.00724639
0.00747802
0.00771305
0.00795093
0.00819097
0.00843238
0.00867426
0.00891555
0.00915507
0.00939151
0.00962343
0.0098493
0.0100675
0.0102766
0.0104748
0.0106608
0.0108334
0.0109916
0.0111347
0.0112622
0.0113743
0.0114713
0.0115538
0.0116228
0.0116794
0.0117251
0.0117613
0.0117894
0.011811
0.0118275
0.0118399
0.0118493
0.0118562
0.0118608
0.011863
0.0118621
0.0118571
0.0118464
0.0118331
0.0118118
0.0117785
0.01173
0.0116631
0.0115746
0.0114611
0.0113192
0.0111453
0.0109363
0.0106894
0.0104025
0.0100741
0.00970393
0.00929279
0.00884241
0.00835534
0.00783468
0.0072837
0.00670557
0.00610313
0.00547886
0.00483508
0.0041746
0.00350226
0.00282801
0.00217224
0.00157146
0.00107634
0.000732854
0.000557014
0.000530695
0.000605354
0.000698282
0.000754629
0.000778484
0.000787692
0.000792098
0.000795376
0.000798673
0.000802255
0.000806102
0.000810112
0.000814166
0.00081815
0.000821951
0.000825437
0.000828531
0.00083116
0.000832992
0.000833704
0.000832891
0.000830098
0.000824861
0.000816763
0.000805515
0.000791026
0.000773462
0.000753256
0.000731062
0.000707671
0.000683901
0.000660498
0.00063807
0.000617052
0.000597717
0.000580193
0.000564498
0.00055057
0.0005383
0.000527548
0.000518161
0.000509992
0.0005029
0.000496728
0.000491324
0.000486135
0.000481051
0.000476037
0.000471063
0.000466107
0.000461149
0.000456174
0.00045117
0.000446127
0.000441042
0.000435914
0.000430745
0.000425542
0.000420316
0.00041508
0.000409853
0.000404655
0.000399511
0.000394446
0.000389491
0.000384676
0.000380033
0.000375594
0.000371394
0.000367464
0.000363835
0.000360538
0.0003576
0.000355046
0.000352901
0.000351183
0.000349911
0.000349098
0.000348758
0.0003489
0.000349534
0.000350667
0.000352306
0.000354458
0.000357131
0.000360337
0.000364088
0.000368405
0.000373313
0.000378998
0.000385428
0.000392636
0.000400681
0.000409646
0.000419637
0.000430784
0.000443238
0.00045715
0.000472631
0.000489646
0.000507806
0.000525994
0.00054195
0.00539282
0.00556876
0.00576291
0.00596108
0.00616365
0.00637096
0.00658369
0.00680237
0.00702734
0.00725881
0.00749683
0.00774133
0.00799215
0.00824905
0.00851173
0.00877983
0.00905288
0.00933037
0.00961166
0.00989601
0.0101825
0.0104703
0.010758
0.0110445
0.0113283
0.0116078
0.0118815
0.0121474
0.012404
0.0126494
0.012882
0.0131001
0.0133024
0.0134877
0.0136549
0.0138033
0.0139323
0.0140418
0.0141317
0.0142022
0.0142538
0.0142873
0.0143036
0.0143039
0.0142895
0.0142617
0.0142221
0.0141722
0.0141135
0.0140473
0.0139747
0.0138965
0.0138131
0.0137263
0.0136386
0.0135455
0.0134441
0.0133319
0.0132061
0.0130641
0.012903
0.0127198
0.0125118
0.0122763
0.0120109
0.0117138
0.0113836
0.0110194
0.0106209
0.0101885
0.00972269
0.00922456
0.00869537
0.00813661
0.0075499
0.00693708
0.00630031
0.00564232
0.00496681
0.00427924
0.00358815
0.00290789
0.00226215
0.00168606
0.00122074
0.000897266
0.000719186
0.000659157
0.000669069
0.000699472
0.000723429
0.000737394
0.000745617
0.000751673
0.000757375
0.000763473
0.000770214
0.00077763
0.000785663
0.000794194
0.000803187
0.000813254
0.000824346
0.000836343
0.000848915
0.000861494
0.000873237
0.00088305
0.000889675
0.000891884
0.000888735
0.000879814
0.000865374
0.000846301
0.000823906
0.000799649
0.000774887
0.000750707
0.000727876
0.000706853
0.000687855
0.000670926
0.000655994
0.000642922
0.000631541
0.000621671
0.000613146
0.000605769
0.000599338
0.000593219
0.000587262
0.000581412
0.00057563
0.000569884
0.00056415
0.000558406
0.000552638
0.000546834
0.000540988
0.000535097
0.000529166
0.000523202
0.000517219
0.000511233
0.000505268
0.000499347
0.000493502
0.000487763
0.000482167
0.000476748
0.000471545
0.000466593
0.00046193
0.000457589
0.000453603
0.000449999
0.000446801
0.00044403
0.0004417
0.000439822
0.000438399
0.000437435
0.000436925
0.000436864
0.000437245
0.00043806
0.000439298
0.000440954
0.000443018
0.000445487
0.000448359
0.000451636
0.00045532
0.000459422
0.000464045
0.000469151
0.000474747
0.000480845
0.000487452
0.000494564
0.000502157
0.000510164
0.000518457
0.000526804
0.000534847
0.000542095
0.000548049
0.00636082
0.00655859
0.00677626
0.00699919
0.00722735
0.00746126
0.00770164
0.00794903
0.00820381
0.00846616
0.00873614
0.00901367
0.0092986
0.0095907
0.00988965
0.0101951
0.0105065
0.0108235
0.0111452
0.011471
0.0117998
0.0121308
0.0124625
0.0127938
0.013123
0.0134485
0.0137684
0.0140811
0.0143843
0.0146762
0.0149548
0.0152179
0.0154637
0.0156903
0.015896
0.016079
0.0162381
0.016372
0.0164797
0.0165606
0.0166145
0.0166414
0.0166419
0.0166169
0.0165679
0.0164967
0.0164057
0.0162974
0.0161748
0.0160408
0.0158985
0.0157506
0.0155996
0.0154474
0.0152999
0.015157
0.0150158
0.0148735
0.0147276
0.0145753
0.0144138
0.01424
0.0140509
0.0138437
0.0136156
0.0133642
0.0130873
0.0127829
0.0124496
0.012086
0.0116911
0.0112641
0.0108043
0.0103112
0.00978436
0.0092236
0.00862905
0.00800134
0.00734186
0.0066531
0.00593912
0.00520613
0.00446327
0.0037238
0.0030068
0.00233883
0.00175336
0.00128411
0.000951161
0.000748231
0.000644204
0.000599677
0.000583936
0.000580227
0.00058143
0.000584872
0.000589595
0.000595288
0.000601884
0.000609365
0.000617834
0.000628178
0.000640864
0.000656452
0.000675458
0.000698282
0.000725049
0.000755389
0.000788185
0.000821395
0.000852112
0.000877036
0.000893301
0.000899328
0.000895252
0.000882709
0.000864166
0.000842196
0.000818981
0.0007961
0.000774551
0.00075486
0.000737234
0.000721679
0.000708084
0.000696288
0.000686114
0.000677345
0.000669732
0.000662553
0.000655619
0.000648849
0.000642193
0.000635611
0.000629071
0.000622549
0.000616024
0.000609483
0.000602918
0.000596326
0.00058971
0.000583081
0.000576454
0.000569847
0.000563288
0.000556804
0.000550431
0.000544202
0.000538158
0.000532338
0.00052678
0.000521523
0.000516604
0.000512056
0.000507907
0.000504182
0.000500896
0.000498063
0.000495684
0.000493758
0.000492277
0.000491224
0.000490582
0.000490328
0.000490437
0.000490886
0.00049165
0.000492707
0.000494037
0.000495623
0.000497451
0.000499511
0.000501792
0.000504289
0.000506996
0.000509946
0.000513108
0.000516465
0.000519997
0.000523675
0.000527461
0.000531305
0.000535143
0.000538903
0.000542518
0.000545949
0.000549234
0.00718758
0.00740428
0.00764194
0.00788615
0.00813635
0.00839323
0.00865752
0.00892975
0.00921029
0.00949932
0.00979688
0.0101029
0.0104173
0.0107397
0.01107
0.0114078
0.0117525
0.0121037
0.0124607
0.0128227
0.0131888
0.0135579
0.0139287
0.0142997
0.0146696
0.0150364
0.0153982
0.0157531
0.0160989
0.0164332
0.0167537
0.017058
0.0173436
0.017608
0.0178489
0.0180639
0.0182508
0.0184079
0.0185333
0.018626
0.0186851
0.0187105
0.0187025
0.0186622
0.0185912
0.0184918
0.018367
0.0182201
0.0180549
0.0178754
0.0176854
0.0174887
0.0172889
0.0170888
0.0168908
0.0167012
0.0165213
0.0163486
0.0161805
0.0160145
0.0158477
0.0156776
0.0155012
0.0153159
0.0151189
0.0149078
0.01468
0.0144335
0.014166
0.0138756
0.0135604
0.0132183
0.0128473
0.0124456
0.0120108
0.0115408
0.0110334
0.0104864
0.0098979
0.0092664
0.0085912
0.00787285
0.00711374
0.00631888
0.00549686
0.00466098
0.00383054
0.00303203
0.00229938
0.00167082
0.00117946
0.0008383
0.000630852
0.000519686
0.000466144
0.000442635
0.000433378
0.000430551
0.000430652
0.000432201
0.000434675
0.000438153
0.000442959
0.000449678
0.00045908
0.000472149
0.000490093
0.000514287
0.000546106
0.000586536
0.000635501
0.000691019
0.00074865
0.000801979
0.000844475
0.000871862
0.000883418
0.000881504
0.000870011
0.000852882
0.000833267
0.000813307
0.000794271
0.000776805
0.000761168
0.000747395
0.000735412
0.000725047
0.00071604
0.000707591
0.000699473
0.000691581
0.000683848
0.00067623
0.00066869
0.000661197
0.00065373
0.000646272
0.000638814
0.000631355
0.000623899
0.000616457
0.000609048
0.000601696
0.000594429
0.00058728
0.000580288
0.000573491
0.00056693
0.000560647
0.000554682
0.000549074
0.000543857
0.000539061
0.000534712
0.000530826
0.000527414
0.000524478
0.000522011
0.000519999
0.000518421
0.00051725
0.000516453
0.000515995
0.00051584
0.000515953
0.000516299
0.000516849
0.000517576
0.000518458
0.000519477
0.00052062
0.000521876
0.000523237
0.000524696
0.000526251
0.000527907
0.000529654
0.000531486
0.000533395
0.000535378
0.000537435
0.000539568
0.000541792
0.000544135
0.000546649
0.000549414
0.00781353
0.00804526
0.00829808
0.00855864
0.00882575
0.00910035
0.0093831
0.00967455
0.00997501
0.0102846
0.0106035
0.0109315
0.0112686
0.0116146
0.0119691
0.0123319
0.0127026
0.0130805
0.0134651
0.0138556
0.0142511
0.0146503
0.0150522
0.0154552
0.0158577
0.0162579
0.0166539
0.0170434
0.0174241
0.0177936
0.0181493
0.0184884
0.0188081
0.0191057
0.0193783
0.0196231
0.0198377
0.0200198
0.0201673
0.0202788
0.0203534
0.0203907
0.0203911
0.0203557
0.0202863
0.0201852
0.0200557
0.019901
0.019725
0.0195316
0.0193246
0.0191076
0.018884
0.0186567
0.018428
0.0181998
0.0179771
0.0177643
0.0175598
0.0173621
0.0171696
0.0169803
0.0167924
0.0166038
0.0164125
0.0162165
0.0160138
0.0158024
0.0155804
0.0153457
0.0150964
0.0148302
0.0145448
0.0142374
0.0139053
0.0135451
0.0131534
0.0127264
0.0122601
0.0117502
0.0111926
0.0105831
0.00991848
0.00919605
0.00841498
0.0075769
0.00668713
0.00575631
0.00480231
0.0038524
0.002945
0.00212897
0.00145658
0.000965907
0.000658042
0.0004925
0.000413507
0.000378121
0.000362193
0.000354293
0.000349595
0.000345758
0.000342259
0.000339122
0.000336648
0.000335377
0.000336115
0.000340007
0.000348633
0.000364088
0.000388965
0.000426059
0.00047751
0.000543201
0.000618918
0.000695863
0.00076319
0.000812578
0.000841344
0.000852026
0.00084973
0.000839628
0.000825689
0.000810488
0.000795499
0.000781492
0.000768825
0.000757587
0.000747656
0.000738286
0.000729244
0.000720413
0.000711728
0.000703142
0.000694622
0.000686142
0.00067768
0.000669225
0.000660772
0.000652323
0.000643888
0.000635486
0.000627141
0.000618885
0.000610753
0.000602785
0.000595025
0.000587517
0.000580306
0.000573437
0.00056695
0.000560885
0.000555274
0.000550145
0.000545517
0.000541402
0.000537804
0.000534716
0.000532124
0.000530002
0.000528321
0.000527042
0.000526126
0.000525528
0.000525205
0.000525115
0.00052522
0.000525486
0.000525886
0.000526397
0.000527002
0.000527689
0.00052845
0.00052928
0.00053018
0.00053115
0.000532192
0.000533315
0.000534524
0.000535828
0.00053724
0.000538776
0.000540459
0.00054232
0.0005444
0.000546749
0.000549434
0.00818597
0.00842783
0.00868975
0.0089603
0.00923776
0.0095233
0.00981751
0.0101209
0.0104338
0.0107564
0.0110886
0.0114304
0.0117817
0.0121424
0.0125123
0.012891
0.0132781
0.0136732
0.0140757
0.0144847
0.0148993
0.0153186
0.0157412
0.0161656
0.0165903
0.0170135
0.0174332
0.0178472
0.0182531
0.0186484
0.0190305
0.0193966
0.0197437
0.020069
0.0203695
0.0206426
0.0208854
0.0210956
0.0212713
0.0214108
0.0215132
0.021578
0.0216054
0.0215965
0.0215526
0.021476
0.0213692
0.0212352
0.0210772
0.0208982
0.0207016
0.0204904
0.0202673
0.0200349
0.0197954
0.0195506
0.0193021
0.0190516
0.0188046
0.0185628
0.018326
0.0180936
0.0178653
0.0176404
0.017418
0.0171973
0.0169774
0.016757
0.0165352
0.0163107
0.0160821
0.0158479
0.0156063
0.0153552
0.015092
0.0148139
0.0145173
0.0141982
0.0138521
0.0134737
0.0130574
0.0125973
0.0120869
0.01152
0.0108904
0.0101929
0.00942334
0.00857985
0.00766399
0.00668249
0.00564972
0.00459086
0.0035457
0.00257136
0.00173937
0.00111703
0.000728345
0.000528009
0.000437046
0.000395863
0.000374558
0.000359414
0.000346137
0.000333243
0.000320328
0.000307426
0.000294797
0.000282896
0.000272425
0.000264448
0.000260546
0.000262996
0.000274905
0.000300142
0.000342721
0.00040507
0.000485137
0.000574072
0.000657951
0.000724185
0.00076743
0.000789911
0.00079755
0.000796226
0.000790181
0.000782011
0.000773188
0.000764491
0.000756261
0.000748191
0.000740143
0.000732043
0.000723855
0.000715566
0.000707164
0.000698645
0.000690008
0.000681257
0.000672403
0.000663466
0.000654473
0.000645458
0.000636462
0.000627533
0.000618722
0.000610084
0.000601675
0.00059355
0.000585765
0.00057837
0.000571413
0.000564935
0.000558971
0.000553547
0.000548679
0.000544377
0.000540636
0.000537443
0.000534777
0.000532606
0.00053089
0.000529585
0.000528644
0.000528016
0.000527654
0.000527513
0.000527551
0.000527735
0.000528035
0.00052843
0.000528905
0.000529448
0.000530055
0.000530724
0.000531456
0.000532256
0.000533131
0.000534088
0.000535138
0.000536296
0.000537578
0.000539004
0.0005406
0.000542396
0.000544433
0.000546759
0.000549436
0.00826774
0.00851405
0.0087781
0.00905131
0.00933151
0.00962015
0.00991776
0.0102248
0.0105416
0.0108682
0.0112047
0.0115509
0.0119069
0.0122726
0.0126476
0.0130319
0.013425
0.0138264
0.0142357
0.0146521
0.0150746
0.0155023
0.015934
0.0163682
0.0168034
0.0172379
0.0176698
0.0180969
0.0185169
0.0189276
0.0193263
0.0197103
0.0200769
0.0204234
0.0207469
0.0210448
0.0213147
0.0215541
0.0217613
0.0219346
0.0220729
0.0221756
0.0222427
0.0222748
0.0222728
0.0222382
0.0221729
0.0220789
0.0219584
0.0218138
0.0216473
0.0214612
0.0212575
0.0210382
0.0208052
0.0205602
0.0203046
0.02004
0.0197677
0.0194903
0.0192112
0.0189313
0.0186511
0.0183709
0.0180913
0.0178126
0.0175349
0.0172583
0.0169826
0.0167077
0.0164333
0.0161591
0.0158846
0.0156093
0.0153322
0.0150521
0.0147673
0.0144756
0.0141738
0.013858
0.0135236
0.0131646
0.0127745
0.0123458
0.0118705
0.0113404
0.0107475
0.0100847
0.00934648
0.00852997
0.00763617
0.00667182
0.00565194
0.00460312
0.0035674
0.00260516
0.00179182
0.00119628
0.000835738
0.000652575
0.000563768
0.00051153
0.000472624
0.000438534
0.00040659
0.000376112
0.000347015
0.00031933
0.000293097
0.000268416
0.000245604
0.000225393
0.000209127
0.000198903
0.000197641
0.000209105
0.000237724
0.000287557
0.000359369
0.000446369
0.000533548
0.000605232
0.000654433
0.000683686
0.000699317
0.000706847
0.000709798
0.000710151
0.000709058
0.000707201
0.00070465
0.000701431
0.000697577
0.000693124
0.000688108
0.000682558
0.000676507
0.000669989
0.000663042
0.000655713
0.000648054
0.000640128
0.000632003
0.000623754
0.000615461
0.000607204
0.000599067
0.000591131
0.000583473
0.000576166
0.000569273
0.000562851
0.000556945
0.00055159
0.000546807
0.000542606
0.000538984
0.000535926
0.000533405
0.000531386
0.000529823
0.000528669
0.000527871
0.000527376
0.000527134
0.000527098
0.000527227
0.000527486
0.000527848
0.000528292
0.000528805
0.000529378
0.000530007
0.000530691
0.000531435
0.000532243
0.000533123
0.000534083
0.000535136
0.000536295
0.000537578
0.000539004
0.0005406
0.000542396
0.000544433
0.000546759
0.000549436
0.00804573
0.00829023
0.00854897
0.00881706
0.00909199
0.00937546
0.00966794
0.00996992
0.0102816
0.010603
0.0109342
0.0112752
0.0116259
0.0119863
0.0123561
0.0127353
0.0131235
0.0135203
0.0139252
0.0143375
0.0147564
0.0151809
0.01561
0.0160422
0.0164762
0.0169103
0.0173428
0.0177716
0.0181948
0.01861
0.019015
0.0194073
0.0197845
0.0201441
0.0204835
0.0208004
0.0210926
0.0213579
0.0215944
0.0218008
0.0219756
0.0221183
0.0222283
0.0223056
0.0223507
0.0223644
0.0223477
0.0223019
0.0222282
0.0221282
0.0220032
0.0218547
0.0216842
0.0214931
0.0212828
0.0210544
0.0208092
0.0205482
0.0202726
0.0199835
0.0196821
0.0193708
0.0190515
0.0187246
0.0183909
0.0180508
0.0177051
0.0173538
0.0169972
0.0166352
0.0162678
0.0158946
0.0155157
0.0151311
0.014741
0.0143457
0.0139457
0.0135417
0.0131344
0.0127244
0.0123119
0.0118964
0.0114764
0.011049
0.0106096
0.0101518
0.00966759
0.00914818
0.00858526
0.00797239
0.00730641
0.00658855
0.00582567
0.00503153
0.00422814
0.00344645
0.00272525
0.00210631
0.00162352
0.00128672
0.00107138
0.000931031
0.000827815
0.000739618
0.000658546
0.000583295
0.000514529
0.00045291
0.000398418
0.000350337
0.000307583
0.000269146
0.000234476
0.000203732
0.000177846
0.000158427
0.000147611
0.00014811
0.000163501
0.000198092
0.000254418
0.00032742
0.000401923
0.000462388
0.000504168
0.000531461
0.000549801
0.000562787
0.000572457
0.000580686
0.00058772
0.000593641
0.000598504
0.000602352
0.000605219
0.000607134
0.000608121
0.000608208
0.000607425
0.00060581
0.000603413
0.000600291
0.000596518
0.000592176
0.000587361
0.000582176
0.000576731
0.000571143
0.000565524