/*--------------------------------*- C++ -*----------------------------------*\
| =========                 |                                                 |
| \\      /  F ield         | OpenFOAM: The Open Source CFD Toolbox           |
|  \\    /   O peration     | Version:  2406                                  |
|   \\  /    A nd           | Website:  www.openfoam.com                      |
|    \\/     M anipulation  |                                                 |
\*---------------------------------------------------------------------------*/
FoamFile
{
    version     2.0;
    format      ascii;
    arch        "LSB;label=32;scalar=64";
    class       volScalarField;
    location    "600";
    object      epsilon;
}
// * * * * * * * * * * * * * * * * * * * * * * * * * * * * * * * * * * * * * //

dimensions      [0 2 -3 0 0 0 0];

internalField   nonuniform List<scalar> 
5619
(
4.35417
4.61216
4.88604
5.1848
5.50783
5.86003
6.24529
6.66787
7.13179
7.64098
8.19925
8.81032
9.47787
10.2055
10.9968
11.8549
12.7828
13.7829
14.8569
16.0055
17.2283
18.5232
19.8867
21.3132
22.795
24.3227
25.885
27.4691
29.0617
30.6497
32.2215
33.768
35.2841
36.7691
38.2276
39.6689
41.1059
42.5538
44.0282
45.5428
47.1083
48.7307
50.4111
52.1458
53.9269
55.743
57.5812
59.4283
61.2727
63.1074
64.9325
66.7598
68.5135
70.1368
71.5882
72.8211
73.7807
74.4017
74.6051
74.2953
73.3568
71.6512
69.0158
65.266
60.2067
53.6615
45.5387
35.9593
25.4737
15.3105
7.31863
2.91467
1.53954
1.39134
1.40043
1.40527
1.40568
1.40286
1.39732
1.3894
1.37939
1.36755
1.3541
1.33925
1.32319
1.30609
1.2881
1.26933
1.24991
1.22991
1.20941
1.18848
1.16754
1.14687
1.12652
1.10649
1.08679
1.06742
1.04835
1.02958
1.01113
0.990976
0.969144
0.945682
0.920702
0.894369
0.866903
0.838572
0.809686
0.780578
0.75159
0.723059
0.695295
0.668572
0.643115
0.619097
0.596637
0.575801
0.556612
0.539056
0.523087
0.508639
0.495629
0.483966
0.473552
0.46429
0.456077
0.448817
0.442425
0.436197
0.430099
0.424096
0.418159
0.412263
0.406384
0.4005
0.394593
0.388646
0.382645
0.37658
0.370442
0.364224
0.357924
0.351542
0.345081
0.338547
0.331951
0.325306
0.318628
0.311939
0.305263
0.298628
0.292064
0.285605
0.279287
0.273149
0.267229
0.261569
0.256206
0.251178
0.24652
0.242263
0.238432
0.235048
0.232123
0.229661
0.227661
0.22611
0.22499
0.224275
0.223933
0.223928
0.224229
0.224799
0.225606
0.226647
0.227977
0.229759
0.232342
0.236363
0.242826
0.253082
0.268508
0.289481
0.31234
0.320609
0.265784
1.2777
1.35603
1.44096
1.53433
1.63701
1.75053
1.87631
2.01581
2.17045
2.3416
2.53064
2.73889
2.96767
3.21828
3.49193
3.78975
4.11268
4.46145
4.83645
5.23766
5.66456
6.11602
6.5902
7.08456
7.59576
8.11977
8.65198
9.18739
9.72098
10.248
10.7646
11.2679
11.7568
12.232
12.6957
13.1521
13.6059
14.0627
14.5277
15.0051
15.498
16.0076
16.5336
17.0741
17.6262
18.186
18.7495
19.3128
19.8732
20.4291
20.9812
21.533
22.0492
22.5161
22.9212
23.2507
23.4881
23.6144
23.6068
23.4383
23.0772
22.4862
21.6229
20.4411
18.8943
16.9443
14.5771
11.8305
8.83526
5.85394
3.26845
1.44418
0.506666
0.222998
0.178402
0.167944
0.161058
0.15522
0.149747
0.144444
0.139305
0.134362
0.12964
0.125173
0.120989
0.117111
0.113557
0.110338
0.107461
0.104931
0.10278
0.10105
0.0994806
0.0979979
0.0965957
0.0952683
0.0940098
0.092815
0.091679
0.0905965
0.0895652
0.0884816
0.0873509
0.0861823
0.0849864
0.0837766
0.0825673
0.0813744
0.0802136
0.0790998
0.0780465
0.0770649
0.0761635
0.0753476
0.0746198
0.07398
0.0734255
0.0729521
0.072554
0.0722247
0.0719572
0.0717444
0.0715791
0.0714545
0.0713639
0.0713013
0.0712615
0.0712385
0.0712289
0.0712295
0.071239
0.0712572
0.0712839
0.071319
0.0713627
0.0714154
0.0714775
0.0715497
0.0716328
0.0717276
0.0718351
0.0719564
0.0720929
0.0722456
0.0724161
0.0726057
0.0728159
0.0730478
0.0733029
0.0735821
0.0738863
0.0742161
0.0745718
0.0749529
0.0753588
0.0757879
0.0762381
0.0767067
0.0771901
0.0776839
0.0781833
0.0786827
0.0791762
0.0796574
0.0801195
0.080555
0.0809554
0.0813105
0.0816073
0.0818284
0.0819496
0.0819389
0.0818386
0.0815958
0.0811304
0.0803299
0.0790464
0.077103
0.0743202
0.0705793
0.0659253
0.0606806
0.0554701
0.0510174
0.0475961
0.0440459
0.0357099
0.642687
0.693467
0.74905
0.810463
0.878404
0.953784
1.0375
1.1305
1.23371
1.34809
1.47459
1.61416
1.76777
1.93635
2.1208
2.32192
2.5404
2.77677
3.03129
3.30394
3.59434
3.90165
4.22455
4.5612
4.90925
5.26585
5.62777
5.99153
6.35364
6.71083
7.06031
7.40005
7.72893
8.04688
8.35479
8.65438
8.94794
9.23792
9.52666
9.81602
10.1072
10.4007
10.6962
10.9928
11.2889
11.5829
11.8732
12.1579
12.4358
12.7055
12.9658
13.2148
13.4389
13.6327
13.7915
13.9097
13.9808
13.9966
13.947
13.8197
13.5997
13.2687
12.8058
12.1879
11.392
10.3989
9.20126
7.81384
6.28657
4.71158
3.21302
1.91735
0.929795
0.326832
0.085189
0.0337474
0.0273822
0.0253698
0.023983
0.022829
0.021823
0.0209404
0.0201729
0.0195142
0.0189565
0.0184913
0.0181101
0.017805
0.0175692
0.0174005
0.017279
0.0171715
0.0170751
0.0169886
0.0169109
0.0168413
0.016779
0.0167235
0.0166743
0.0166306
0.0165929
0.0165581
0.016527
0.0165013
0.0164827
0.0164731
0.0164747
0.0164896
0.0165204
0.016569
0.0166372
0.0167265
0.0168372
0.0169691
0.0171209
0.0172907
0.0174754
0.0176718
0.0178762
0.0180848
0.0182939
0.0185003
0.018701
0.0188938
0.0190767
0.0192487
0.019409
0.0195567
0.0196923
0.0198301
0.0199706
0.0201147
0.0202632
0.0204168
0.0205765
0.020743
0.0209174
0.0211005
0.0212934
0.0214971
0.0217127
0.0219412
0.0221838
0.0224414
0.0227151
0.0230059
0.0233145
0.0236416
0.0239877
0.0243529
0.024737
0.0251393
0.0255585
0.0259927
0.026439
0.0268938
0.0273523
0.0278086
0.0282559
0.0286858
0.0290891
0.0294557
0.0297744
0.0300338
0.0302218
0.0303267
0.0303367
0.030241
0.0300297
0.0296945
0.0292302
0.0286579
0.0279537
0.0271046
0.0260969
0.024919
0.0235654
0.0220437
0.0203822
0.0186388
0.0169057
0.0153029
0.0139533
0.0129302
0.0121633
0.0112655
0.0091252
0.437178
0.478206
0.523461
0.573671
0.629414
0.691416
0.760407
0.83716
0.922465
1.01714
1.12201
1.23794
1.36578
1.50637
1.66053
1.82901
2.01246
2.21139
2.4261
2.65666
2.90281
3.16394
3.43901
3.72658
4.02472
4.33113
4.64313
4.95784
5.27224
5.58346
5.88885
6.18622
6.47392
6.75094
7.01687
7.27182
7.51629
7.751
7.9767
8.19407
8.4036
8.60554
8.79994
8.98664
9.1654
9.3359
9.49784
9.65096
9.79498
9.92956
10.0542
10.1681
10.2657
10.3445
10.4028
10.4383
10.4479
10.4276
10.3717
10.2731
10.1226
9.90927
9.62059
9.24302
8.76363
8.17247
7.46606
6.65142
5.74882
4.79061
3.8141
2.85275
1.93896
1.12699
0.509843
0.162993
0.0386833
0.0125384
0.00899319
0.00819858
0.00789588
0.00771843
0.00759303
0.0074974
0.00742262
0.00736456
0.00732076
0.00728926
0.00726825
0.00725453
0.00724271
0.0072319
0.0072216
0.00721142
0.007201
0.00719006
0.00717832
0.00716559
0.00715169
0.00713613
0.00711937
0.00709869
0.00707301
0.00704241
0.00700672
0.00696623
0.00692162
0.00687407
0.00682524
0.0067772
0.00673224
0.0066927
0.00666071
0.00663795
0.0066255
0.00662378
0.00663255
0.006651
0.00667787
0.00671163
0.00675064
0.00679326
0.00683797
0.00688344
0.00692855
0.00697245
0.00701454
0.00705402
0.0070909
0.007129
0.0071683
0.00720919
0.00725189
0.00729666
0.00734379
0.00739359
0.0074464
0.00750255
0.00756244
0.00762644
0.00769496
0.00776842
0.00784722
0.00793176
0.00802244
0.0081196
0.00822353
0.00833442
0.00845238
0.00857733
0.00870902
0.00884694
0.00899029
0.00913789
0.00928817
0.00943906
0.00958799
0.00973184
0.00986696
0.00998922
0.0100941
0.0101767
0.0102323
0.0102563
0.0102445
0.0101936
0.0101015
0.0099678
0.0097937
0.00958276
0.00934112
0.00906596
0.00875393
0.00841024
0.00804088
0.00765332
0.00725698
0.00686362
0.00648736
0.00614427
0.00585073
0.00562007
0.00545597
0.00534027
0.00521047
0.0049233
0.0042058
0.352346
0.38895
0.429612
0.474891
0.525304
0.581511
0.644183
0.714035
0.791812
0.87829
0.974272
1.08059
1.19807
1.32757
1.4699
1.62583
1.79605
1.98112
2.18144
2.39716
2.62819
2.87409
3.13406
3.40688
3.69094
3.98419
4.28424
4.58842
4.89383
5.19754
5.49666
5.78849
6.0706
6.34092
6.59779
6.83992
7.06642
7.27673
7.4706
7.64804
7.80934
7.95497
8.0856
8.20209
8.3054
8.39663
8.47691
8.54739
8.60914
8.66315
8.7102
8.75088
8.78345
8.80599
8.81761
8.8172
8.803
8.77228
8.72126
8.64498
8.5373
8.39108
8.19853
7.95192
7.6445
7.27181
6.83296
6.3315
5.77494
5.17258
4.53179
3.85512
3.14209
2.39832
1.65194
0.97096
0.454326
0.160818
0.044954
0.0136603
0.00752898
0.00616162
0.00575845
0.00561941
0.00556414
0.00554014
0.00553027
0.00552728
0.00552786
0.00552833
0.00552748
0.00552484
0.00552009
0.00551289
0.00550296
0.00548999
0.00547371
0.00545387
0.00543022
0.00540214
0.00536993
0.00532808
0.00527437
0.00520802
0.00512813
0.00503445
0.00492741
0.00480829
0.00467923
0.00454316
0.00440358
0.00426425
0.00412885
0.00400062
0.00388212
0.00377511
0.00368051
0.00359847
0.00352855
0.00346986
0.00342126
0.00338146
0.00334918
0.0033232
0.0033024
0.00328582
0.00327271
0.00326208
0.0032536
0.00324615
0.00323941
0.00323348
0.00322831
0.00322392
0.00322034
0.00321761
0.00321579
0.00321497
0.00321524
0.00321672
0.00321953
0.00322382
0.00322972
0.00323739
0.00324699
0.00325865
0.00327253
0.00328872
0.00330732
0.00332834
0.00335178
0.00337752
0.00340539
0.00343507
0.00346616
0.00349809
0.00353018
0.0035616
0.0035914
0.00361851
0.00364182
0.00366023
0.00367269
0.0036783
0.00367641
0.00366669
0.00364919
0.0036244
0.00359329
0.00355722
0.00351795
0.00347475
0.00342435
0.00337037
0.00331554
0.00326272
0.00321491
0.00317522
0.00314672
0.00313212
0.00313317
0.0031494
0.00317611
0.003201
0.00319956
0.00313229
0.00295543
0.31497
0.349713
0.388548
0.431911
0.480293
0.534335
0.594698
0.662089
0.737253
0.820973
0.914065
1.01738
1.13179
1.25817
1.39739
1.55029
1.71763
1.90008
2.09814
2.31213
2.54209
2.78778
3.04859
3.3235
3.61111
3.90954
4.21653
4.52943
4.84526
5.16082
5.47274
5.77764
6.07219
6.3532
6.61778
6.86337
7.08786
7.28967
7.46777
7.62178
7.75197
7.8592
7.94492
8.01106
8.05991
8.09404
8.11609
8.12872
8.13443
8.13547
8.13376
8.13081
8.12743
8.12114
8.11075
8.09514
8.07271
8.04111
7.99721
7.93704
7.85602
7.74911
7.61123
7.4377
7.22486
6.9706
6.67473
6.33904
5.96665
5.56091
5.12371
4.65418
4.14806
3.59889
3.00146
2.35923
1.69675
1.07235
0.569698
0.247457
0.0899165
0.0310343
0.0132451
0.00846814
0.00712824
0.00662658
0.00641341
0.00631488
0.00626614
0.00623746
0.00621446
0.00619182
0.00616706
0.00613893
0.00610675
0.00607008
0.00602859
0.00598197
0.00592992
0.00587167
0.00580739
0.00572776
0.0056297
0.00551219
0.00537426
0.0052159
0.0050381
0.00484307
0.00463418
0.0044158
0.00419299
0.00397108
0.00375519
0.00354979
0.00335843
0.00318353
0.00302635
0.00288718
0.00276546
0.00266008
0.00256957
0.00249228
0.00242656
0.00237082
0.0023236
0.0022836
0.00224976
0.00222081
0.00219609
0.00217269
0.00215007
0.00212817
0.00210687
0.00208608
0.00206574
0.00204582
0.0020263
0.0020072
0.00198853
0.00197036
0.00195274
0.00193576
0.00191953
0.00190416
0.00188979
0.00187654
0.00186457
0.001854
0.00184499
0.00183764
0.00183207
0.00182837
0.00182657
0.00182671
0.00182876
0.00183264
0.00183822
0.00184535
0.0018538
0.00186331
0.00187362
0.00188442
0.00189546
0.00190648
0.00191732
0.00192787
0.00193815
0.00194827
0.00195845
0.00196905
0.00198046
0.00199316
0.00200629
0.00202055
0.00203711
0.00205701
0.0020813
0.002111
0.00214701
0.00218998
0.00224012
0.00229686
0.00235841
0.00242146
0.00248142
0.00253543
0.00259216
0.300992
0.335323
0.373895
0.417051
0.465264
0.519187
0.57949
0.646901
0.722189
0.806168
0.899695
1.00367
1.11901
1.24668
1.38762
1.54277
1.713
1.89911
2.10176
2.32141
2.5583
2.81239
3.08325
3.37008
3.67163
3.98617
4.3115
4.64491
4.98328
5.32304
5.66032
5.991
6.31085
6.61564
6.90132
7.16416
7.40096
7.60916
7.78702
7.93371
8.0494
8.13521
8.1932
8.22623
8.23778
8.23181
8.21246
8.1839
8.15006
8.1145
8.08017
8.04938
8.02363
8.00228
7.98239
7.96191
7.9388
7.91045
7.8737
7.8248
7.75967
7.67408
7.56399
7.42591
7.25725
7.05664
6.82408
6.56089
6.26942
5.95247
5.61252
5.25087
4.86699
4.45805
4.01911
3.54416
3.02844
2.47286
1.89139
1.31993
0.816621
0.439015
0.206677
0.0900415
0.0405418
0.0216878
0.0147196
0.0120134
0.0108252
0.0102074
0.00982719
0.00955678
0.00934047
0.00915122
0.00897495
0.00880397
0.00863392
0.00846221
0.0082872
0.00810712
0.00792177
0.00771122
0.00747253
0.00720634
0.00691377
0.00659748
0.00626152
0.00591123
0.00555289
0.00519327
0.00483915
0.00449684
0.00417187
0.00386873
0.00359064
0.00333955
0.00311611
0.00291981
0.00274921
0.00260226
0.00247653
0.00236948
0.00227864
0.0022017
0.00213656
0.00208143
0.0020348
0.00199502
0.00196104
0.00192894
0.00189793
0.00186783
0.00183845
0.00180964
0.00178129
0.00175333
0.0017257
0.00169837
0.00167136
0.00164468
0.0016184
0.00159259
0.00156736
0.00154282
0.00151911
0.00149638
0.00147478
0.00145448
0.00143565
0.00141843
0.00140299
0.00138946
0.00137796
0.00136857
0.00136138
0.00135641
0.00135366
0.00135312
0.0013547
0.00135833
0.00136388
0.00137122
0.00138023
0.00139077
0.00140273
0.00141604
0.00143068
0.00144666
0.00146407
0.00148305
0.0015038
0.0015266
0.00155176
0.00157922
0.0016096
0.00164349
0.00168152
0.00172433
0.0017726
0.00182703
0.00188834
0.00195731
0.00203492
0.00212267
0.0022234
0.0023431
0.0024938
0.299864
0.334576
0.373729
0.417599
0.466641
0.521531
0.582959
0.651683
0.728506
0.814283
0.909921
1.01638
1.13465
1.26578
1.41081
1.57079
1.74672
1.93955
2.15009
2.37902
2.62676
2.89348
3.17898
3.48266
3.80348
4.13984
4.48964
4.85017
5.21819
5.58989
5.961
6.32683
6.68243
7.02275
7.34277
7.63777
7.90352
8.13652
8.33417
8.49496
8.61857
8.70592
8.75915
8.78148
8.77709
8.75088
8.70816
8.65439
8.59486
8.53442
8.4772
8.42644
8.38433
8.35213
8.32765
8.30667
8.28602
8.26246
8.23235
8.19173
8.13642
8.06226
7.9654
7.84258
7.69138
7.51045
7.29961
7.05986
6.7932
6.50232
6.1902
5.85965
5.51282
5.15083
4.77356
4.37961
3.9666
3.53169
3.07271
2.58992
2.08926
1.58709
1.11399
0.710493
0.410113
0.21929
0.115245
0.064633
0.0413849
0.0306858
0.0254521
0.0225848
0.0207773
0.019477
0.0184393
0.0175486
0.0167455
0.0159973
0.0152852
0.0145964
0.0139252
0.0132113
0.0124548
0.0116642
0.0108501
0.0100257
0.00920658
0.00840869
0.00764689
0.00693324
0.00627588
0.00567879
0.0051424
0.00466476
0.00424266
0.00387244
0.00355027
0.00327221
0.00303409
0.00283155
0.00266021
0.00251582
0.0023944
0.00229242
0.00220675
0.00213474
0.00207424
0.00202305
0.0019796
0.0019389
0.00189985
0.00186214
0.00182548
0.00178966
0.00175451
0.00171991
0.00168576
0.00165202
0.00161865
0.00158568
0.00155316
0.00152115
0.00148976
0.00145911
0.00142934
0.00140062
0.00137311
0.00134699
0.00132244
0.00129964
0.00127874
0.00125991
0.00124327
0.00122894
0.001217
0.00120752
0.00120053
0.00119602
0.00119395
0.00119428
0.00119692
0.00120177
0.00120872
0.00121767
0.00122853
0.00124123
0.00125573
0.00127202
0.00129017
0.00131028
0.0013325
0.00135705
0.00138422
0.00141434
0.00144766
0.00148474
0.00152618
0.00157267
0.00162505
0.0016843
0.00175169
0.0018288
0.00191775
0.00202148
0.0021441
0.00229154
0.00247204
0.30534
0.340712
0.380717
0.425582
0.47574
0.531888
0.594737
0.665068
0.743714
0.83157
0.929587
1.03878
1.16021
1.29499
1.44427
1.60919
1.79091
1.99049
2.20893
2.44709
2.7056
2.98484
3.28487
3.60534
3.94544
4.30381
4.67853
5.06707
5.46625
5.87226
6.28074
6.68678
7.08511
7.4702
7.83647
8.1785
8.49126
8.77034
9.01223
9.21446
9.37577
9.49624
9.5773
9.62165
9.63319
9.61678
9.57798
9.5228
9.45728
9.38725
9.31791
9.25365
9.19776
9.1522
9.12001
9.09657
9.0767
9.05611
9.03061
8.99583
8.94737
8.88091
8.79247
8.67862
8.53672
8.36506
8.16294
7.93072
7.6697
7.38193
7.07004
6.7369
6.38539
6.01813
5.63731
5.24455
4.84094
4.42706
4.0032
3.5697
3.12732
2.67793
2.22556
1.7781
1.34953
0.960925
0.636818
0.395333
0.237459
0.146304
0.0981035
0.0734241
0.0604062
0.0528956
0.0479651
0.0442791
0.0412308
0.0385377
0.036062
0.0337265
0.0314971
0.0291753
0.0267687
0.0243092
0.0218352
0.019395
0.0170422
0.0148319
0.0128126
0.0110201
0.00947148
0.00816418
0.00707871
0.00618512
0.00545028
0.00484353
0.00433975
0.00391971
0.00356896
0.0032763
0.00303257
0.00282996
0.00266171
0.00252202
0.00240593
0.00230935
0.00222897
0.00216168
0.00210511
0.00205274
0.00200302
0.0019554
0.00190947
0.00186491
0.00182148
0.00177899
0.00173729
0.00169629
0.00165595
0.00161625
0.00157723
0.00153895
0.00150152
0.00146506
0.00142972
0.00139566
0.00136305
0.00133209
0.00130295
0.0012758
0.00125082
0.00122815
0.00120793
0.00119026
0.00117522
0.00116288
0.00115325
0.00114633
0.00114208
0.00114044
0.00114133
0.00114464
0.00115028
0.00115813
0.00116811
0.00118013
0.00119415
0.00121017
0.00122823
0.00124843
0.00127092
0.00129591
0.00132367
0.00135455
0.00138897
0.00142739
0.00147045
0.00151892
0.00157371
0.00163597
0.00170713
0.00178897
0.00188379
0.00199458
0.00212525
0.00228091
0.0024683
0.312705
0.348576
0.389191
0.434758
0.485671
0.542641
0.606384
0.677692
0.757411
0.846452
0.945792
1.05647
1.1796
1.31635
1.46791
1.63553
1.82043
2.02383
2.24683
2.49047
2.75558
3.04275
3.3523
3.68415
4.0378
4.41223
4.80588
5.21655
5.64142
6.07703
6.5193
6.96358
7.40474
7.83735
8.25574
8.65429
9.02761
9.37072
9.67937
9.95015
10.1807
10.37
10.518
10.6262
10.6971
10.7342
10.7422
10.726
10.691
10.6429
10.5867
10.5275
10.4692
10.4152
10.3676
10.3323
10.3056
10.281
10.2537
10.2191
10.1726
10.1097
10.0264
9.91897
9.7844
9.62049
9.42589
9.20018
8.94382
8.65802
8.34463
8.00593
7.64446
7.26286
6.86366
6.44922
6.02166
5.58289
5.13463
4.67859
4.21666
3.75113
3.28498
2.82217
2.36792
1.92913
1.51494
1.13729
0.810694
0.549241
0.360486
0.239542
0.170107
0.13283
0.112804
0.101166
0.0933832
0.08733
0.0820564
0.0771243
0.0723574
0.0672727
0.0618522
0.0561422
0.0502143
0.0441769
0.038172
0.0323693
0.0269497
0.02208
0.017883
0.0144147
0.0116567
0.00952906
0.00791696
0.00669977
0.00577187
0.00505185
0.00448232
0.00402478
0.00365352
0.00335067
0.00310299
0.00290012
0.00273368
0.00259691
0.00248441
0.00239139
0.00231415
0.00224364
0.00217756
0.00211496
0.00205521
0.00199782
0.0019424
0.00188867
0.00183639
0.00178543
0.00173566
0.00168707
0.00163965
0.00159347
0.0015486
0.00150518
0.00146334
0.00142326
0.00138509
0.00134902
0.00131521
0.00128383
0.00125502
0.00122892
0.00120564
0.00118526
0.00116783
0.0011534
0.00114195
0.00113345
0.00112785
0.00112506
0.00112498
0.00112748
0.00113245
0.00113977
0.00114933
0.00116105
0.00117487
0.00119079
0.00120884
0.00122911
0.00125176
0.00127698
0.00130507
0.00133636
0.0013713
0.00141039
0.00145426
0.0015037
0.00155964
0.00162325
0.00169596
0.00177957
0.00187634
0.00198917
0.00212182
0.00227919
0.00246778
0.318215
0.354082
0.394665
0.440179
0.490966
0.547738
0.611194
0.682112
0.761324
0.849727
0.948287
1.05804
1.18009
1.31561
1.46583
1.63198
1.81536
2.01723
2.23879
2.48118
2.74537
3.03215
3.34208
3.67535
4.03182
4.41087
4.8114
5.23174
5.66965
6.12229
6.58622
7.05746
7.53153
8.00354
8.46833
8.92064
9.35523
9.76716
10.1519
10.5055
10.825
11.1081
11.3538
11.5618
11.7331
11.8694
11.9731
12.0474
12.0955
12.1211
12.1278
12.119
12.0979
12.0674
12.0301
11.9878
11.9479
11.9137
11.8779
11.8359
11.7835
11.7167
11.6315
11.5239
11.3907
11.2293
11.0375
10.8143
10.5594
10.2732
9.95682
9.61202
9.2409
8.84582
8.42923
7.99353
7.54096
7.07359
6.59327
6.10175
5.60079
5.09234
4.57884
4.06342
3.55026
3.04477
2.55379
2.08554
1.64959
1.25649
0.917352
0.642522
0.438559
0.303586
0.224852
0.183318
0.16207
0.150405
0.142826
0.13678
0.131192
0.125109
0.118296
0.110653
0.102134
0.0927579
0.0826269
0.071947
0.0610439
0.0503508
0.0403576
0.0315201
0.0241544
0.0183656
0.0140469
0.0109474
0.00876742
0.00723308
0.00613239
0.00531854
0.00469727
0.00421054
0.00382257
0.00351027
0.00325753
0.00305237
0.00288555
0.0027493
0.00263755
0.00253704
0.00244416
0.00235728
0.00227532
0.0021975
0.00212321
0.00205196
0.0019834
0.00191725
0.00185333
0.00179155
0.00173188
0.00167432
0.00161896
0.0015659
0.00151526
0.00146718
0.0014218
0.00137928
0.00133974
0.00130332
0.00127012
0.00124023
0.0012137
0.00119057
0.00117085
0.00115452
0.00114152
0.00113178
0.0011252
0.00112165
0.00112099
0.00112308
0.00112775
0.00113487
0.0011443
0.00115595
0.00116976
0.0011857
0.00120381
0.00122416
0.00124692
0.00127228
0.00130052
0.001332
0.00136714
0.00140647
0.00145062
0.00150038
0.00155668
0.00162067
0.00169379
0.00177783
0.00187503
0.00198828
0.00212129
0.00227893
0.00246771
0.319421
0.354605
0.394312
0.438785
0.488303
0.543564
0.605227
0.674034
0.75077
0.836287
0.931498
1.03739
1.15502
1.2855
1.43001
1.58978
1.76604
1.96006
2.17305
2.40618
2.66052
2.93697
3.23625
3.55882
3.90485
4.27412
4.66602
5.07946
5.51289
5.96421
6.43083
6.90964
7.39707
7.88914
8.38157
8.86984
9.34939
9.81571
10.2645
10.692
11.0947
11.4701
11.816
12.1314
12.4158
12.6694
12.893
13.0879
13.2556
13.3976
13.5157
13.6112
13.6854
13.7393
13.7735
13.7884
13.7845
13.7639
13.7355
13.6987
13.6489
13.583
13.498
13.3904
13.257
13.0947
12.9008
12.6734
12.4112
12.1139
11.7819
11.4165
11.0198
10.5942
10.1427
9.66839
9.17442
8.66374
8.13908
7.60282
7.05703
6.50353
5.94408
5.38062
4.81556
4.25214
3.69476
3.14936
2.62352
2.12653
1.66901
1.26224
0.917046
0.642199
0.441989
0.312794
0.24077
0.205643
0.189559
0.181742
0.177099
0.173119
0.168892
0.163949
0.157953
0.150602
0.141617
0.130787
0.118038
0.10354
0.0877908
0.0716397
0.0561666
0.0424297
0.031164
0.0226004
0.0165002
0.012355
0.0096062
0.00778138
0.00653872
0.00565596
0.00499952
0.00449298
0.00409277
0.00377255
0.00351481
0.00330634
0.00313702
0.00298665
0.00284953
0.00272282
0.00260472
0.00249393
0.00238942
0.00229038
0.00219621
0.00210644
0.00202074
0.0019389
0.0018608
0.00178639
0.00171568
0.00164872
0.00158556
0.0015263
0.00147101
0.00141977
0.00137263
0.00132965
0.00129083
0.00125619
0.0012257
0.0011993
0.00117693
0.00115849
0.00114384
0.00113284
0.00112532
0.00112111
0.00112
0.00112179
0.0011263
0.00113335
0.00114278
0.00115446
0.00116833
0.00118435
0.00120254
0.00122298
0.00124581
0.00127125
0.00129957
0.00133111
0.00136632
0.00140572
0.00144995
0.00149978
0.00155615
0.00162022
0.00169343
0.00177754
0.00187482
0.00198813
0.00212119
0.00227888
0.00246769
0.315607
0.349467
0.387504
0.430001
0.477182
0.529709
0.588189
0.653307
0.725779
0.806382
0.895948
0.995373
1.10562
1.22771
1.36272
1.51179
1.67606
1.85672
2.05492
2.2718
2.5084
2.7657
3.04449
3.3454
3.66882
4.01487
4.38333
4.77366
5.18491
5.61571
6.06428
6.52842
7.00549
7.49251
7.98617
8.48288
8.97893
9.4705
9.95385
10.4254
10.8818
11.3202
11.7381
12.1335
12.5052
12.8522
13.1742
13.4713
13.7439
13.9925
14.2181
14.4216
14.6036
14.7648
14.9053
15.0249
15.1225
15.197
15.2461
15.2717
15.277
15.2605
15.2197
15.1522
15.0551
14.9251
14.7587
14.5522
14.3029
14.0083
13.6672
13.2793
12.8457
12.3687
11.8516
11.2989
10.7159
10.1084
9.48257
8.84438
8.19962
7.55347
6.91043
6.2742
5.6478
5.03375
4.4344
3.85237
3.29108
2.75523
2.25118
1.78695
1.3718
1.01518
0.725082
0.505883
0.356003
0.266086
0.219713
0.198742
0.189943
0.186066
0.184267
0.183335
0.182658
0.181754
0.180085
0.176986
0.171678
0.163348
0.151343
0.135447
0.11618
0.0949199
0.0736789
0.0545039
0.0388208
0.0271042
0.019004
0.0137294
0.0104165
0.0083443
0.00700535
0.00608647
0.00541389
0.00489737
0.0044898
0.00416361
0.00390073
0.00366936
0.00346053
0.00326959
0.0030936
0.00293036
0.00277817
0.00263569
0.00250186
0.00237588
0.00225715
0.00214524
0.00203986
0.00194078
0.00184789
0.00176108
0.00168029
0.00160546
0.00153654
0.00147345
0.0014161
0.00136439
0.00131821
0.00127741
0.00124182
0.00121128
0.00118557
0.0011645
0.00114782
0.00113529
0.00112665
0.00112165
0.00112001
0.00112147
0.0011258
0.00113277
0.00114219
0.00115392
0.00116785
0.00118394
0.0012022
0.00122271
0.0012456
0.00127109
0.00129945
0.00133103
0.00136627
0.00140568
0.00144992
0.00149976
0.00155614
0.00162022
0.00169342
0.00177754
0.00187481
0.00198813
0.00212119
0.00227888
0.00246769
0.307813
0.339922
0.375761
0.415664
0.4598
0.508792
0.563188
0.623605
0.690683
0.765106
0.847609
0.938978
1.04006
1.15175
1.275
1.4108
1.56019
1.72421
1.90391
2.10033
2.31444
2.54717
2.79933
3.0716
3.3645
3.67835
4.01322
4.36895
4.74504
5.14072
5.55486
5.986
6.43235
6.89177
7.36185
7.83989
8.32299
8.80806
9.29195
9.77145
10.2434
10.7048
11.1528
11.5849
11.999
12.3933
12.7664
13.1174
13.4455
13.7505
14.0327
14.2926
14.5314
14.7502
14.9508
15.1344
15.3025
15.4558
15.5944
15.7179
15.8243
15.9111
15.9753
16.0158
16.0291
16.0112
15.9572
15.8611
15.7164
15.5167
15.2557
14.928
14.5296
14.058
13.5131
12.897
12.2145
11.473
10.6827
9.85571
9.00633
8.1499
7.30214
6.47813
5.69125
4.95211
4.26778
3.64147
3.07296
2.55985
2.09927
1.68934
1.32981
1.02187
0.767053
0.565905
0.416452
0.313283
0.24773
0.209358
0.188349
0.176911
0.170896
0.168197
0.167939
0.169717
0.173188
0.177866
0.182992
0.187449
0.189744
0.188108
0.180816
0.166761
0.146129
0.120765
0.0938007
0.0686054
0.0476741
0.0320781
0.0215645
0.0150553
0.0112414
0.00901679
0.00764476
0.00671658
0.0060339
0.00550517
0.0050859
0.00472021
0.00439327
0.0040975
0.00382792
0.00358079
0.00335315
0.00314266
0.00294747
0.00276612
0.00259747
0.00244064
0.00229495
0.00215984
0.00203488
0.00191967
0.00181389
0.00171719
0.00162926
0.00154978
0.0014784
0.00141478
0.00135858
0.00130942
0.00126695
0.00123078
0.00120054
0.00117586
0.00115636
0.00114166
0.00113138
0.00112515
0.00112263
0.00112348
0.00112739
0.00113408
0.00114332
0.00115494
0.00116881
0.00118486
0.0012031
0.00122359
0.00124646
0.00127193
0.00130027
0.00133181
0.00136701
0.00140638
0.00145056
0.00150034
0.00155665
0.00162065
0.00169378
0.00177783
0.00187503
0.00198828
0.00212129
0.00227893
0.00246771
0.298346
0.32858
0.362072
0.399197
0.44009
0.485329
0.535406
0.590874
0.652294
0.720265
0.79542
0.878435
0.970035
1.07099
1.18211
1.30426
1.43831
1.58517
1.74575
1.92096
2.11166
2.31867
2.54277
2.7846
3.04472
3.32352
3.62123
3.93791
4.27337
4.62721
4.99877
5.38713
5.79111
6.20926
6.63984
7.0809
7.53022
7.98539
8.4438
8.90267
9.35912
9.81016
10.2528
10.6842
11.1016
11.5025
11.8848
12.2464
12.5856
12.901
13.192
13.4583
13.7004
13.9197
14.1179
14.2975
14.4614
14.6129
14.7553
14.8919
15.0261
15.1609
15.2966
15.4259
15.5482
15.6605
15.7582
15.8351
15.8827
15.891
15.8484
15.742
15.5585
15.2847
14.9082
14.4186
13.8085
13.0747
12.2192
11.2504
10.1843
9.04499
7.8649
6.6839
5.54692
4.4993
3.57974
2.81181
2.19792
1.72057
1.35221
1.06647
0.843467
0.669626
0.535421
0.433391
0.357002
0.300313
0.258161
0.226457
0.202212
0.182766
0.167274
0.155338
0.146924
0.14219
0.141305
0.144312
0.151032
0.160983
0.173276
0.186479
0.198491
0.206572
0.207695
0.199328
0.180489
0.152592
0.119479
0.0863663
0.0580399
0.037208
0.0239305
0.016408
0.0123948
0.0101843
0.00881789
0.00786034
0.00713657
0.00651826
0.00597416
0.00548918
0.00505341
0.00465944
0.0043015
0.00397504
0.00367642
0.00340276
0.00315171
0.00292142
0.00271032
0.00251715
0.00234081
0.00218033
0.00203485
0.00190354
0.00178561
0.0016803
0.00158684
0.0015045
0.00143253
0.0013702
0.0013168
0.00127165
0.0012341
0.00120349
0.00117922
0.00116072
0.00114743
0.00113884
0.00113446
0.00113385
0.00113661
0.0011424
0.00115092
0.00116197
0.00117536
0.00119102
0.00120892
0.00122912
0.00125173
0.00127694
0.00130503
0.00133632
0.00137125
0.00141034
0.00145423
0.00150367
0.00155962
0.00162324
0.00169595
0.00177956
0.00187633
0.00198917
0.00212182
0.00227919
0.00246778
0.290097
0.31863
0.349986
0.384576
0.422518
0.464346
0.510505
0.561491
0.617803
0.679962
0.748515
0.824042
0.90716
0.998524
1.09883
1.20879
1.32917
1.46073
1.60425
1.76049
1.93021
2.11411
2.31287
2.52707
2.75723
3.00375
3.26691
3.54686
3.84357
4.15686
4.48635
4.83146
5.19141
5.5652
5.95161
6.3492
6.75631
7.17106
7.59133
8.0148
8.43892
8.86092
9.27789
9.68682
10.0848
10.4689
10.8364
11.1845
11.5108
11.813
12.0894
12.3388
12.5612
12.757
12.9276
13.0753
13.2029
13.3139
13.4125
13.5034
13.5921
13.6841
13.7861
13.9048
14.0354
14.1794
14.3365
14.505
14.6812
14.8592
15.0301
15.1826
15.3018
15.3697
15.3654
15.2649
15.0426
14.672
14.1276
13.3878
12.4384
11.2772
9.92023
8.40914
6.81828
5.25782
3.86298
2.75658
1.98835
1.50334
1.19307
0.972255
0.799119
0.658212
0.544416
0.455257
0.387821
0.337899
0.300432
0.270611
0.244784
0.219887
0.195674
0.172842
0.152472
0.135696
0.123453
0.116366
0.114734
0.118579
0.127707
0.141719
0.159905
0.181025
0.203046
0.222945
0.236665
0.239417
0.226775
0.197039
0.154054
0.107399
0.0677534
0.040849
0.0258058
0.0183806
0.0147018
0.0126001
0.0111848
0.0100347
0.00905151
0.00819301
0.00743411
0.00675743
0.00615018
0.00560262
0.00510718
0.00465787
0.00424992
0.00387945
0.00354327
0.00323869
0.00296341
0.00271541
0.00249287
0.00229407
0.00211739
0.00196129
0.00182423
0.00170472
0.0016013
0.00151257
0.00143715
0.00137375
0.00132114
0.00127819
0.00124383
0.0012171
0.0011971
0.00118304
0.00117419
0.00116993
0.00116968
0.00117299
0.00117945
0.00118876
0.0012007
0.00121511
0.00123194
0.00125118
0.00127294
0.00129736
0.00132469
0.00135523
0.00138938
0.00142763
0.00147059
0.00151899
0.00157374
0.00163599
0.00170713
0.00178897
0.00188379
0.00199458
0.00212525
0.00228091
0.0024683
0.286061
0.313304
0.343018
0.375651
0.411315
0.450507
0.493636
0.541157
0.593517
0.65118
0.714626
0.784362
0.860922
0.944873
1.03681
1.13736
1.24716
1.36688
1.49717
1.63869
1.79208
1.95795
2.13687
2.32936
2.53586
2.75673
2.99226
3.2426
3.50779
3.78774
4.08222
4.39084
4.71303
5.04809
5.3951
5.75298
6.12044
6.49598
6.8779
7.26427
7.6529
8.04137
8.42704
8.80708
9.17857
9.53849
9.88373
10.211
10.5173
10.7997
11.0562
11.2845
11.4842
11.6555
11.7993
11.9176
12.0123
12.0863
12.1434
12.1879
12.225
12.2601
12.2998
12.3516
12.4241
12.5169
12.6337
12.7779
12.951
13.1537
13.3852
13.6431
13.9227
14.2164
14.5122
14.7933
15.0361
15.2092
15.2725
15.1767
14.8641
14.2719
13.3401
12.0274
10.3393
8.36997
6.34068
4.57749
3.33966
2.60899
2.16612
1.83306
1.53644
1.25919
1.00556
0.787142
0.614716
0.491773
0.411398
0.358961
0.319738
0.283936
0.248816
0.214437
0.182029
0.153128
0.129094
0.110829
0.0987244
0.0927592
0.0927081
0.0983383
0.109538
0.126337
0.148813
0.176888
0.209905
0.245743
0.279318
0.301087
0.297978
0.260482
0.194568
0.123659
0.0707743
0.0416062
0.0284302
0.0225332
0.0193463
0.0170419
0.0151826
0.0136108
0.0122476
0.0110458
0.0099744
0.00901193
0.0081428
0.0073554
0.00664082
0.0059921
0.00540364
0.00487081
0.00438971
0.00395688
0.0035692
0.00322374
0.00291767
0.0026482
0.00241256
0.00220798
0.00203172
0.00188107