/*--------------------------------*- C++ -*----------------------------------*\
| =========                 |                                                 |
| \\      /  F ield         | OpenFOAM: The Open Source CFD Toolbox           |
|  \\    /   O peration     | Version:  2406                                  |
|   \\  /    A nd           | Website:  www.openfoam.com                      |
|    \\/     M anipulation  |                                                 |
\*---------------------------------------------------------------------------*/
FoamFile
{
    version     2.0;
    format      ascii;
    arch        "LSB;label=32;scalar=64";
    class       volScalarField;
    location    "600";
    object      k;
}
// * * * * * * * * * * * * * * * * * * * * * * * * * * * * * * * * * * * * * //

dimensions      [0 2 -2 0 0 0 0];

internalField   nonuniform List<scalar> 
5619
(
0.0490085
0.0509244
0.0529216
0.0550595
0.0573269
0.0597503
0.0623471
0.0651354
0.0681297
0.0713427
0.0747845
0.0784635
0.0823867
0.0865597
0.0909862
0.0956685
0.100606
0.105796
0.11123
0.116899
0.122786
0.128868
0.13512
0.141507
0.147989
0.154523
0.161059
0.167548
0.173941
0.180192
0.186266
0.192137
0.197796
0.203252
0.208531
0.213675
0.218737
0.223775
0.228846
0.233997
0.239262
0.244659
0.250188
0.255831
0.26156
0.267336
0.273115
0.278857
0.284528
0.290108
0.295601
0.301048
0.306193
0.310893
0.315033
0.318486
0.321099
0.322689
0.323028
0.321834
0.318753
0.313341
0.305045
0.293178
0.276911
0.25529
0.227337
0.192358
0.150679
0.105105
0.0627755
0.0342134
0.0239703
0.0230582
0.0231632
0.0232052
0.0232018
0.0231642
0.0230973
0.0230046
0.022889
0.0227532
0.0225995
0.02243
0.0222465
0.0220508
0.0218442
0.0216282
0.0214037
0.0211716
0.0209326
0.0206874
0.0204419
0.0201984
0.0199572
0.0197185
0.0194824
0.0192488
0.0190176
0.0187888
0.0185624
0.0183138
0.0180426
0.017749
0.0174339
0.0170986
0.0167456
0.0163776
0.0159981
0.0156113
0.0152214
0.0148327
0.0144496
0.0140761
0.0137157
0.0133713
0.0130452
0.012739
0.0124539
0.0121901
0.0119477
0.0117263
0.0115251
0.0113433
0.0111798
0.0110333
0.0109027
0.0107865
0.0106837
0.0105831
0.0104841
0.0103862
0.010289
0.0101919
0.0100947
0.00999696
0.00989833
0.00979855
0.00969735
0.00959454
0.00948992
0.00938336
0.00927478
0.00916413
0.00905143
0.00893675
0.00882023
0.00870207
0.00858252
0.00846194
0.00834073
0.00821938
0.00809845
0.00797857
0.00786044
0.00774482
0.0076325
0.0075243
0.00742108
0.00732365
0.00723282
0.0071493
0.00707373
0.00700662
0.00694836
0.00689914
0.00685901
0.00682782
0.00680525
0.00679083
0.00678392
0.00678381
0.00678989
0.00680139
0.00681765
0.00683861
0.00686534
0.00690107
0.0069527
0.00703268
0.0071603
0.00736052
0.00765667
0.00805034
0.00846876
0.00861758
0.00760479
0.0556021
0.0587628
0.0623027
0.0661012
0.07019
0.0745929
0.0793384
0.0844525
0.0899587
0.095877
0.102224
0.109013
0.116254
0.123952
0.13211
0.140725
0.149786
0.159278
0.169175
0.179444
0.190038
0.200901
0.211965
0.223148
0.234359
0.245497
0.256455
0.267124
0.2774
0.287189
0.296414
0.305026
0.313007
0.320376
0.327189
0.333542
0.339559
0.345385
0.351175
0.357081
0.363241
0.369767
0.376747
0.384235
0.392258
0.400814
0.409883
0.419427
0.429401
0.439751
0.450428
0.461389
0.472457
0.4834
0.494042
0.504184
0.513578
0.521923
0.528841
0.533858
0.536376
0.53564
0.530694
0.520335
0.503065
0.477062
0.440228
0.39043
0.326207
0.248389
0.162937
0.0838104
0.0301769
0.00961689
0.00635424
0.00602153
0.0059043
0.00581532
0.00573455
0.00565723
0.00558294
0.00551189
0.00544418
0.00538004
0.00531975
0.00526358
0.00521175
0.00516445
0.00512183
0.00508403
0.00505174
0.0050259
0.00500293
0.00498175
0.00496222
0.00494424
0.00492767
0.00491242
0.00489838
0.00488545
0.00487362
0.00486179
0.00485014
0.00483893
0.00482847
0.00481912
0.00481127
0.00480534
0.00480172
0.00480078
0.00480281
0.004808
0.00481643
0.00482804
0.00484262
0.00485988
0.0048794
0.00490073
0.00492337
0.00494683
0.00497064
0.00499436
0.00501764
0.00504016
0.00506167
0.00508199
0.005101
0.00511857
0.00513471
0.00515109
0.00516772
0.00518468
0.00520203
0.00521986
0.00523824
0.00525724
0.00527696
0.00529749
0.00531891
0.00534132
0.00536482
0.00538949
0.00541542
0.00544271
0.00547142
0.00550164
0.00553342
0.00556679
0.00560178
0.00563837
0.00567653
0.00571618
0.00575717
0.00579935
0.00584247
0.00588623
0.00593029
0.00597422
0.00601752
0.00605967
0.00610008
0.0061381
0.00617311
0.00620441
0.00623133
0.00625315
0.00626911
0.00627835
0.00627986
0.00627234
0.00625402
0.00622258
0.00618017
0.00612489
0.00605089
0.00595032
0.00581312
0.00562744
0.00538162
0.00506867
0.00469373
0.00428274
0.00388677
0.00357551
0.00342087
0.003484
0.00379533
0.064932
0.0693543
0.0742517
0.0794955
0.0851244
0.0911666
0.0976568
0.104627
0.112107
0.120124
0.128701
0.137857
0.147608
0.157965
0.168933
0.180511
0.19269
0.205452
0.218768
0.232594
0.246877
0.261543
0.276506
0.291661
0.306891
0.322063
0.337037
0.351669
0.365816
0.379347
0.392151
0.404146
0.415286
0.425568
0.435031
0.443761
0.451878
0.459534
0.466893
0.474123
0.481384
0.488813
0.496522
0.50459
0.513067
0.521972
0.531299
0.54102
0.551094
0.561463
0.572059
0.582798
0.593544
0.604003
0.613985
0.623282
0.631634
0.638721
0.644137
0.647368
0.647766
0.644512
0.636591
0.622753
0.601507
0.571159
0.529952
0.476395
0.40989
0.331681
0.245929
0.160356
0.0858533
0.0341593
0.0102235
0.00429873
0.00360342
0.00350481
0.00347618
0.00346047
0.00344842
0.00343774
0.00342821
0.00341997
0.0034131
0.00340755
0.00340321
0.00340003
0.00339791
0.00339666
0.00339565
0.00339428
0.00339251
0.00339031
0.00338766
0.00338454
0.00338095
0.00337687
0.00337231
0.00336723
0.00336173
0.00335495
0.00334674
0.00333716
0.00332627
0.00331425
0.00330141
0.0032882
0.00327515
0.00326292
0.00325216
0.00324351
0.00323751
0.00323455
0.00323481
0.00323832
0.00324488
0.00325416
0.00326573
0.00327907
0.00329368
0.00330905
0.00332476
0.0033404
0.00335568
0.00337035
0.00338427
0.00339726
0.0034093
0.00342164
0.00343431
0.00344738
0.00346094
0.00347504
0.00348978
0.00350524
0.00352149
0.00353865
0.0035568
0.00357605
0.00359649
0.00361824
0.00364138
0.00366603
0.00369226
0.00372017
0.0037498
0.00378121
0.0038144
0.00384935
0.003886
0.0039242
0.00396378
0.00400445
0.00404584
0.0040875
0.00412885
0.00416919
0.00420771
0.0042435
0.00427551
0.00430263
0.00432367
0.00433741
0.00434259
0.00433799
0.00432243
0.00429479
0.0042541
0.00419954
0.00413055
0.00404867
0.0039545
0.0038471
0.00372579
0.00359046
0.00344213
0.00328366
0.00312063
0.00296229
0.00282217
0.00271814
0.00267186
0.00270798
0.00285261
0.00312709
0.00351414
0.0756257
0.0810658
0.0870583
0.0934737
0.100355
0.107736
0.115659
0.124162
0.13328
0.143049
0.153496
0.164648
0.176525
0.189144
0.202515
0.216639
0.231511
0.247112
0.263411
0.280364
0.297907
0.315959
0.334422
0.353174
0.37208
0.390983
0.409718
0.428111
0.445989
0.463187
0.479558
0.494984
0.509381
0.522706
0.534963
0.546199
0.556503
0.565997
0.574825
0.583146
0.591116
0.598884
0.60658
0.614311
0.622157
0.630171
0.63838
0.646786
0.655368
0.664085
0.672876
0.681656
0.690351
0.698634
0.706304
0.713153
0.718925
0.723301
0.725871
0.726124
0.723424
0.716992
0.705899
0.689072
0.665333
0.633494
0.592528
0.54184
0.481605
0.413047
0.338465
0.260933
0.184153
0.113373
0.0566727
0.0219219
0.00785546
0.0044314
0.00388178
0.00377034
0.00374403
0.00373692
0.0037362
0.0037377
0.00373984
0.00374211
0.00374435
0.00374645
0.00374826
0.00374879
0.00374783
0.00374526
0.00374102
0.00373504
0.00372725
0.00371762
0.00370609
0.00369263
0.0036772
0.00365965
0.00364011
0.00361559
0.00358527
0.00354886
0.0035061
0.00345701
0.00340195
0.00334163
0.00327716
0.00320996
0.00314171
0.00307414
0.00300894
0.00294757
0.00289115
0.00284044
0.0027958
0.00275724
0.0027245
0.00269713
0.00267454
0.00265613
0.00264127
0.00262936
0.00261989
0.00261239
0.00260651
0.00260184
0.00259816
0.00259498
0.00259221
0.00258987
0.00258795
0.00258646
0.00258543
0.00258486
0.00258479
0.00258527
0.00258633
0.00258804
0.00259045
0.00259362
0.00259762
0.00260253
0.0026084
0.0026153
0.00262329
0.0026324
0.00264266
0.00265407
0.0026666
0.00268016
0.00269463
0.00270984
0.00272554
0.0027414
0.00275702
0.00277194
0.00278559
0.00279736
0.00280659
0.00281259
0.00281468
0.00281225
0.00280477
0.00279187
0.00277339
0.00274943
0.00272039
0.00268705
0.00265063
0.00261202
0.00257202
0.00253192
0.00249332
0.00245826
0.00242928
0.00240958
0.0024031
0.00241463
0.00244992
0.00251563
0.00261925
0.00276859
0.00297001
0.00322295
0.00350598
0.086923
0.0932985
0.100306
0.107813
0.115864
0.124502
0.133774
0.143726
0.154401
0.165838
0.178074
0.19114
0.205065
0.219869
0.235569
0.252171
0.269671
0.288055
0.307293
0.327337
0.348123
0.369562
0.391546
0.413944
0.436602
0.459346
0.481987
0.504322
0.526147
0.547261
0.567475
0.586622
0.604569
0.621215
0.636507
0.650432
0.663024
0.674354
0.684529
0.69368
0.701955
0.70951
0.7165
0.723068
0.729344
0.735435
0.741425
0.747371
0.753302
0.759217
0.765088
0.770853
0.77651
0.781732
0.786288
0.789964
0.792508
0.793604
0.792863
0.789806
0.783865
0.774387
0.760647
0.741892
0.717404
0.686589
0.649105
0.604965
0.554605
0.498819
0.438539
0.374574
0.307557
0.238406
0.169411
0.105664
0.055133
0.0240331
0.0103569
0.00614546
0.00513945
0.00487096
0.00478809
0.00476158
0.00475492
0.00475701
0.00476299
0.00477025
0.00477739
0.00478278
0.00478597
0.00478674
0.00478489
0.00478026
0.00477265
0.00476191
0.00474785
0.00473032
0.00470914
0.00468392
0.00465471
0.00461658
0.00456763
0.00450698
0.00443375
0.00434754
0.00424855
0.00413765
0.00401651
0.0038875
0.00375356
0.00361794
0.00348395
0.00335458
0.00323234
0.00311907
0.00301592
0.00292339
0.00284143
0.00276956
0.00270706
0.00265303
0.00260652
0.00256658
0.00253233
0.00250297
0.00247783
0.00245614
0.00243743
0.00241956
0.00240223
0.00238541
0.00236901
0.00235297
0.00233727
0.00232187
0.00230675
0.00229192
0.0022774
0.0022632
0.00224937
0.00223596
0.00222303
0.00221066
0.00219891
0.00218787
0.00217762
0.00216826
0.00215986
0.00215248
0.0021462
0.00214106
0.00213707
0.00213423
0.0021325
0.00213182
0.00213209
0.00213318
0.00213493
0.00213716
0.0021397
0.00214238
0.00214503
0.00214756
0.00214994
0.00215222
0.00215456
0.00215726
0.00216072
0.00216549
0.00217226
0.0021816
0.00219382
0.00220985
0.00223076
0.00225782
0.0022925
0.00233653
0.00239191
0.002461
0.00254654
0.0026516
0.0027794
0.00293283
0.00311329
0.00331826
0.00353768
0.0987771
0.106072
0.114084
0.122675
0.131889
0.141776
0.152393
0.163791
0.176022
0.189131
0.203163
0.218156
0.234146
0.25116
0.269221
0.288342
0.308525
0.32976
0.35202
0.37526
0.399413
0.424389
0.450074
0.476328
0.502983
0.52985
0.556715
0.58335
0.609515
0.634966
0.659464
0.682785
0.704729
0.725122
0.743834
0.760772
0.775895
0.789204
0.800751
0.810627
0.818962
0.825915
0.831666
0.836409
0.840335
0.843632
0.846468
0.848988
0.851306
0.853501
0.855612
0.857639
0.859552
0.861227
0.862327
0.862621
0.861859
0.859746
0.855928
0.849992
0.841477
0.82989
0.814738
0.795563
0.771998
0.743816
0.710975
0.673638
0.632146
0.586932
0.538398
0.486789
0.432133
0.374295
0.313199
0.249318
0.184541
0.123232
0.0721463
0.037129
0.0183591
0.0105351
0.00780445
0.00688762
0.00655447
0.00640768
0.00633807
0.00630497
0.00629066
0.00628537
0.00628255
0.00627928
0.00627404
0.00626594
0.0062544
0.00623901
0.00621938
0.00619518
0.00616603
0.00613124
0.00609068
0.00603745
0.00596854
0.00588239
0.00577741
0.00565269
0.00550809
0.00534457
0.00516423
0.00497036
0.0047672
0.00455965
0.00435279
0.00415142
0.00395967
0.0037807
0.0036166
0.00346843
0.00333637
0.00321992
0.00311807
0.00302958
0.00295305
0.00288706
0.00283027
0.00278143
0.00273949
0.00270323
0.00267184
0.0026418
0.00261252
0.0025839
0.00255576
0.00252802
0.00250056
0.00247334
0.00244631
0.00241945
0.00239276
0.00236627
0.00234003
0.0023141
0.00228857
0.00226354
0.00223913
0.00221548
0.00219274
0.00217104
0.00215055
0.00213141
0.00211378
0.0020978
0.00208358
0.00207123
0.00206084
0.00205248
0.00204616
0.00204191
0.00203971
0.00203954
0.00204134
0.00204507
0.00205069
0.00205817
0.00206751
0.00207876
0.002092
0.00210738
0.00212509
0.0021454
0.00216865
0.00219522
0.0022256
0.00226026
0.00229984
0.00234516
0.00239714
0.00245688
0.00252562
0.00260476
0.00269586
0.00280057
0.0029205
0.00305689
0.0032102
0.0033793
0.00356095
0.1111
0.119304
0.128317
0.137989
0.148364
0.1595
0.17146
0.184305
0.198093
0.212877
0.22871
0.245639
0.263706
0.282949
0.303398
0.325075
0.347989
0.372136
0.397497
0.424029
0.451671
0.480332
0.509897
0.54022
0.571124
0.602405
0.633829
0.665139
0.696061
0.726306
0.755579
0.783592
0.810067
0.834748
0.857412
0.877876
0.896003
0.911711
0.924977
0.935835
0.944381
0.950763
0.95518
0.957868
0.95909
0.959126
0.958254
0.956738
0.954817
0.95269
0.950505
0.948355
0.946273
0.944341
0.942159
0.939455
0.935973
0.931433
0.925513
0.917853
0.908072
0.895783
0.88062
0.862266
0.840488
0.815157
0.786265
0.753925
0.718353
0.67982
0.638598
0.594904
0.548842
0.500378
0.449354
0.39555
0.338846
0.279514
0.218743
0.15936
0.106111
0.0643075
0.0367157
0.0215975
0.0144858
0.0113863
0.0100034
0.00933168
0.00896828
0.00874944
0.00860539
0.00850254
0.00842276
0.00835545
0.00829419
0.00823493
0.00817505
0.00811271
0.00804652
0.00797492
0.00789736
0.00780333
0.00768922
0.00755329
0.00739372
0.00720936
0.00700002
0.00676674
0.00651196
0.00623962
0.00595496
0.00566422
0.00537411
0.0050912
0.00482132
0.0045691
0.00433773
0.0041289
0.00394298
0.0037793
0.00363649
0.00351271
0.00340597
0.00331423
0.00323554
0.00316814
0.00311049
0.00306089
0.00301807
0.00297734
0.00293774
0.00289904
0.002861
0.00282345
0.00278623
0.00274925
0.00271242
0.00267571
0.00263911
0.00260263
0.00256634
0.00253032
0.00249468
0.00245956
0.00242513
0.00239157
0.00235908
0.00232786
0.00229814
0.00227014
0.00224407
0.00222013
0.00219851
0.00217938
0.00216288
0.00214912
0.00213818
0.0021301
0.0021249
0.00212255
0.00212303
0.00212626
0.00213219
0.00214075
0.00215189
0.00216558
0.00218182
0.00220066
0.0022222
0.00224657
0.00227398
0.0023047
0.00233904
0.00237754
0.00242057
0.00246869
0.00252255
0.00258288
0.00265052
0.00272641
0.00281155
0.00290702
0.00301386
0.00313307
0.00326547
0.00341173
0.00357272
0.123538
0.132609
0.142582
0.153296
0.164787
0.177125
0.190378
0.204615
0.219901
0.236299
0.253868
0.272664
0.292738
0.314138
0.336903
0.361065
0.386643
0.413644
0.442054
0.471841
0.50295
0.535294
0.568762
0.603205
0.638443
0.674262
0.710414
0.746618
0.782569
0.817937
0.852376
0.885535
0.917062
0.94662
0.973892
0.998598
1.0205
1.03943
1.05526
1.06796
1.07756
1.08417
1.08799
1.08927
1.08832
1.0855
1.08121
1.07583
1.06976
1.06334
1.05687
1.05059
1.04466
1.03923
1.03423
1.02923
1.02392
1.01799
1.01113
1.00297
0.993146
0.9813
0.967087
0.950206
0.930425
0.907591
0.881643
0.852609
0.820604
0.7858
0.748409
0.708643
0.666688
0.622676
0.576673
0.528677
0.478643
0.426526
0.372359
0.316389
0.25931
0.202651
0.149139
0.10254
0.0663813
0.0419999
0.0277125
0.0201719
0.0163574
0.0143847
0.0132895
0.0126179
0.01216
0.0118168
0.0115394
0.0113016
0.0110878
0.0108887
0.0106977
0.0105097
0.0103222
0.0101157
0.00988725
0.00963613
0.00936149
0.00906312
0.00874157
0.00839837
0.0080362
0.00765892
0.00727157
0.00688024
0.00649176
0.0061133
0.00575173
0.00541303
0.00510173
0.00482058
0.00457052
0.00435092
0.00416002
0.0039953
0.00385396
0.00373311
0.00363001
0.00354219
0.00346751
0.00340371
0.00334896
0.00329731
0.00324743
0.00319891
0.0031514
0.00310463
0.00305841
0.00301257
0.002967
0.00292161
0.00287639
0.00283134
0.00278651
0.002742
0.00269795
0.0026545
0.00261187
0.00257026
0.00252993
0.00249111
0.00245408
0.00241911
0.00238643
0.00235631
0.00232897
0.00230459
0.00228336
0.00226539
0.00225078
0.00223957
0.00223175
0.00222731
0.00222616
0.00222821
0.00223334
0.00224144
0.0022524
0.00226611
0.00228252
0.00230161
0.00232339
0.00234794
0.00237539
0.00240592
0.00243977
0.00247725
0.00251884
0.00256489
0.00261591
0.00267245
0.00273519
0.00280485
0.00288228
0.00296842
0.00306437
0.00317137
0.00329098
0.00342523
0.00357706
0.135388
0.145227
0.15605
0.16769
0.180173
0.193579
0.20798
0.223452
0.240067
0.257893
0.276999
0.297448
0.319301
0.342614
0.367438
0.393815
0.421775
0.451335
0.482494
0.515231
0.549497
0.585219
0.62229
0.660568
0.699877
0.74
0.780685
0.821639
0.862538
0.903025
0.942721
0.981227
1.01814
1.05304
1.08556
1.11532
1.14199
1.16531
1.18508
1.20115
1.21349
1.22215
1.22725
1.22905
1.22784
1.22402
1.21803
1.21035
1.20149
1.19191
1.18206
1.17233
1.16301
1.15429
1.1466
1.13961
1.13288
1.12605
1.11874
1.11059
1.10122
1.09025
1.07732
1.06212
1.04438
1.0239
1.00055
0.974278
0.945099
0.913084
0.878349
0.841038
0.801301
0.759286
0.71512
0.668912
0.620747
0.570705
0.518877
0.465404
0.410511
0.354579
0.29823
0.242487
0.188969
0.140018
0.0984129
0.0664429
0.0446684
0.0315119
0.0242512
0.0204028
0.0183265
0.0171179
0.0163252
0.0157338
0.0152438
0.014808
0.0144028
0.0140141
0.013636
0.0132325
0.0128016
0.0123461
0.0118682
0.0113713
0.0108595
0.0103375
0.0098103
0.00928296
0.00876009
0.00824592
0.00774447
0.00725994
0.00679704
0.00636087
0.00595644
0.00558786
0.00525765
0.00496639
0.00471282
0.0044943
0.00430735
0.00414822
0.00401319
0.00389884
0.00380221
0.00372029
0.00365053
0.00358539
0.00352304
0.00346282
0.00340424
0.00334692
0.00329059
0.003235
0.00317999
0.00312544
0.0030713
0.00301756
0.00296427
0.00291152
0.00285944
0.00280823
0.0027581
0.00270928
0.00266205
0.00261668
0.00257347
0.00253269
0.00249463
0.00245955
0.00242768
0.00239922
0.00237434
0.00235315
0.00233574
0.00232212
0.00231227
0.00230612
0.00230355
0.00230443
0.00230859
0.00231585
0.00232606
0.00233907
0.00235475
0.00237304
0.00239391
0.00241739
0.00244356
0.00247257
0.00250461
0.00253995
0.00257891
0.00262193
0.00266942
0.00272192
0.00278004
0.00284451
0.00291619
0.00299613
0.0030856
0.00318618
0.00329989
0.0034294
0.00357821
0.145642
0.156077
0.167553
0.179907
0.193154
0.207379
0.22266
0.239075
0.256701
0.275613
0.295883
0.317582
0.340779
0.36554
0.391922
0.41998
0.449753
0.48127
0.514541
0.549558
0.586287
0.624665
0.6646
0.705962
0.748587
0.792269
0.836762
0.881782
0.927005
0.97207
1.01659
1.06014
1.1023
1.14263
1.18069
1.21607
1.24838
1.27727
1.30248
1.32378
1.34106
1.35428
1.36351
1.36891
1.37072
1.3693
1.36504
1.3584
1.34988
1.33998
1.32917
1.3179
1.30656
1.29547
1.28483
1.27528
1.26659
1.25828
1.24995
1.24122
1.23172
1.22107
1.20893
1.19497
1.1789
1.16048
1.13955
1.11597
1.08968
1.06066
1.02893
0.994536
0.95754
0.918017
0.876037
0.831662
0.784949
0.735951
0.684726
0.63136
0.575987
0.518826
0.460217
0.400672
0.340924
0.281993
0.225264
0.172553
0.126072
0.0880614
0.0599721
0.0415677
0.0308541
0.0251389
0.0221875
0.0206008
0.0196396
0.0189516
0.0183794
0.0178518
0.0173402
0.0167857
0.0161827
0.0155342
0.0148448
0.0141219
0.0133758
0.012619
0.0118654
0.011129
0.0104214
0.00975012
0.0091181
0.00852424
0.00796566
0.00744017
0.00694779
0.00649086
0.00607292
0.00569711
0.00536491
0.00507567
0.00482686
0.00461472
0.00443495
0.00428322
0.00415563
0.00404819
0.0039574
0.00387352
0.00379403
0.00371788
0.00364437
0.00357298
0.00350331
0.00343503
0.00336791
0.00330178
0.00323653
0.00317215
0.00310867
0.00304619
0.00298485
0.00292484
0.0028664
0.00280978
0.00275527
0.00270316
0.00265374
0.0026073
0.00256413
0.00252446
0.00248852
0.00245649
0.00242851
0.00240466
0.002385
0.00236948
0.00235805
0.00235059
0.00234694
0.00234689
0.00235025
0.00235679
0.00236629
0.00237858
0.0023935
0.00241094
0.00243086
0.00245324
0.00247817
0.00250577
0.00253623
0.0025698
0.0026068
0.00264761
0.0026927
0.00274262
0.00279799
0.0028596
0.00292837
0.00300544
0.00309219
0.00319037
0.00330215
0.00343031
0.00357842
0.153183
0.163971
0.175821
0.188585
0.202264
0.21695
0.23272
0.249656
0.267835
0.287334
0.30823
0.330596
0.354506
0.380032
0.40724
0.436189
0.466929
0.4995
0.533922
0.5702
0.608313
0.648216
0.689833
0.733054
0.777736
0.823694
0.870707
0.918513
0.966811
1.01526
1.0635
1.11111
1.15769
1.20279
1.24598
1.28683
1.32494
1.35993
1.39148
1.41934
1.44331
1.46331
1.47931
1.49139
1.49971
1.50452
1.50609
1.50479
1.50098
1.49505
1.48737
1.47832
1.46822
1.45736
1.446
1.43433
1.42299
1.41235
1.4019
1.39133
1.38032
1.36858
1.35578
1.34165
1.3259
1.30829
1.28863
1.26675
1.24255
1.21595
1.1869
1.15539
1.12142
1.085
1.04613
1.00481
0.961022
0.914748
0.865945
0.814575
0.760615
0.704079
0.645049
0.583712
0.52041
0.455689
0.390357
0.325532
0.262695
0.203711
0.1508
0.106331
0.0722531
0.0491377
0.0354926
0.0283691
0.0248935
0.0231665
0.0221932
0.0215148
0.0209395
0.0203353
0.0196696
0.0189314
0.0181172
0.0172299
0.0162783
0.0152786
0.0142541
0.0132344
0.0122519
0.0113355
0.0105045
0.00976415
0.00910594
0.00851347
0.00796968
0.00746267
0.00698785
0.00654655
0.00614287
0.00578069
0.00546178
0.0051854
0.00494877
0.00474798
0.0045788
0.00443657
0.00431684
0.00420712
0.00410398
0.00400585
0.00391174
0.00382094
0.00373291
0.00364721
0.00356352
0.0034816
0.00340132
0.00332264
0.00324558
0.00317026
0.00309683
0.0030255
0.00295652
0.00289016
0.00282673
0.0027665
0.00270976
0.0026568
0.00260786
0.00256316
0.00252288
0.00248716
0.00245608
0.00242967
0.00240792
0.00239073
0.00237799
0.00236949
0.00236504
0.00236437
0.00236722
0.00237333
0.00238244
0.00239434
0.00240883
0.00242581
0.00244519
0.00246698
0.00249123
0.00251807
0.0025477
0.00258038
0.00261641
0.00265621
0.00270023
0.00274904
0.00280331
0.00286384
0.00293159
0.00300772
0.00309367
0.00319121
0.00330253
0.00343043
0.00357844
0.157087
0.167947
0.179841
0.192653
0.206369
0.221086
0.236881
0.253834
0.27202
0.291517
0.312398
0.334739
0.358615
0.384099
0.41126
0.440162
0.470861
0.503402
0.537818
0.574121
0.612307
0.652346
0.694182
0.737729
0.782869
0.829449
0.87728
0.926138
0.97576
1.02585
1.07608
1.12608
1.17549
1.22389
1.27089
1.31607
1.35906
1.39947
1.43699
1.47133
1.50228
1.52969
1.55348
1.57364
1.59025
1.60345
1.61339
1.62032
1.62446
1.62607
1.62539
1.62265
1.61806
1.61177
1.60395
1.5947
1.58413
1.57247
1.56045
1.54811
1.5352
1.52152
1.5069
1.49114
1.47402
1.45536
1.43495
1.41263
1.38829
1.36182
1.33316
1.30228
1.26917
1.23385
1.19633
1.1566
1.11468
1.07053
1.02411
0.975333
0.924106
0.870322
0.813878
0.754709
0.692815
0.628314
0.56149
0.492859
0.423237
0.353803
0.286156
0.222329
0.164744
0.11602
0.0784537
0.0530268
0.0383695
0.0310947
0.027742
0.0261183
0.0251776
0.0244154
0.02367
0.0228761
0.0220033
0.0210345
0.0199599
0.0187771
0.0174947
0.0161373
0.0147491
0.0133913
0.0121318
0.0110265
0.0101024
0.00935083
0.00873609
0.00821313
0.00774385
0.00730531
0.00688963
0.00649878
0.00613853
0.00581404
0.00552782
0.00527961
0.00506722
0.00488691
0.00473443
0.00459483
0.00446387
0.00433952
0.00422053
0.00410603
0.00399535
0.003888
0.00378356
0.0036818
0.00358256
0.00348581
0.00339162
0.00330011
0.00321148
0.00312599
0.00304391
0.00296555
0.00289119
0.00282114
0.00275565
0.00269499
0.00263934
0.00258889
0.00254374
0.00250396
0.00246957
0.00244052
0.0024167
0.00239794
0.00238404
0.00237473
0.00236973
0.00236871
0.00237136
0.00237735
0.0023864
0.00239825
0.0024127
0.00242961
0.00244889
0.00247054
0.00249461
0.00252125
0.00255063
0.00258304
0.00261878
0.00265827
0.00270198
0.00275048
0.00280445
0.00286469
0.00293219
0.00300811
0.00309389
0.00319131
0.00330256
0.00343042
0.00357843
0.156923
0.167575
0.179184
0.19168
0.205036
0.219356
0.234711
0.251179
0.268831
0.28774
0.307977
0.329613
0.352721
0.377371
0.403631
0.431568
0.461237
0.492688
0.525958
0.56107
0.598029
0.636822
0.677409
0.719729
0.763692
0.809176
0.856033
0.904077
0.953095
1.00284
1.05304
1.10339
1.15356
1.20321
1.25198
1.29953
1.34548
1.38951
1.43129
1.47055
1.50705
1.5406
1.57106
1.59836
1.62248
1.64346
1.66137
1.67632
1.68846
1.69793
1.7049
1.70953
1.71198
1.71237
1.71081
1.70736
1.70206
1.69491
1.68589
1.67523
1.66326
1.64998
1.63527
1.61905
1.60121
1.58161
1.56008
1.53646
1.51057
1.4823
1.45154
1.41824
1.38239
1.34403
1.30321
1.26006
1.21468
1.16722
1.1178
1.06652
1.01347
0.958691
0.902182
0.843914
0.783836
0.721905
0.658124
0.592594
0.525579
0.457586
0.389445
0.322383
0.25806
0.198554
0.146222
0.103379
0.0716853
0.0512442
0.0399866
0.0344785
0.0317767
0.0301382
0.0288945
0.0277848
0.0267081
0.0256172
0.0244784
0.0232578
0.0219202
0.0204354
0.0187917
0.0170126
0.0151687
0.0133735
0.011755
0.0104116
0.00937733
0.00861909
0.00806306
0.00762963
0.00725755
0.00691245
0.00658277
0.00627007
0.0059802
0.00571819
0.0054865
0.00528478
0.00511131
0.00495093
0.00479931
0.00465436
0.00451489
0.0043801
0.00424935
0.00412219
0.0039983
0.00387748
0.00375967
0.00364493
0.00353342
0.00342538
0.00332109
0.0032209
0.00312516
0.00303422
0.00294842
0.00286806
0.00279343
0.00272474
0.00266216
0.00260582
0.00255576
0.00251197
0.00247438
0.00244286
0.0024172
0.00239714
0.00238238
0.00237258
0.00236736
0.00236633
0.0023691
0.00237531
0.00238462
0.00239674
0.00241146
0.00242861
0.00244811
0.00246994
0.00249417
0.00252092
0.0025504
0.00258288
0.00261867
0.0026582
0.00270193
0.00275045
0.00280443
0.00286469
0.00293219
0.00300811
0.00309389
0.00319131
0.00330256
0.00343042
0.00357843
0.152876
0.163081
0.174128
0.186
0.198665
0.212228
0.226756
0.242322
0.258993
0.276836
0.295914
0.316293
0.338039
0.361218
0.385894
0.412129
0.439979
0.469491
0.500707
0.533653
0.568342
0.604771
0.642918
0.682739
0.72417
0.76712
0.811473
0.857088
0.903795
0.951399
0.99968
1.04839
1.09727
1.14604
1.19439
1.24202
1.28863
1.33391
1.37757
1.41934
1.45896
1.49621
1.53091
1.56291
1.59211
1.61846
1.64193
1.66253
1.68031
1.69532
1.70767
1.71748
1.72488
1.73002
1.73307
1.73417
1.73344
1.73099
1.72686
1.72109
1.71363
1.70446
1.69351
1.68076
1.66608
1.64933
1.63029
1.6087
1.58428
1.55674
1.52577
1.49113
1.45262
1.4101
1.36353
1.31297
1.2586
1.2007
1.13965
1.07597
1.01024
0.943109
0.875249
0.80733
0.739959
0.673642
0.608741
0.545466
0.483905
0.424109
0.366214
0.310575
0.257843
0.208972
0.165146
0.127586
0.0972619
0.0745434
0.0589321
0.0490693
0.0431338
0.0393489
0.0366447
0.0344494
0.0325318
0.0308106
0.0292498
0.0278141
0.0264492
0.0250779
0.0236077
0.0219503
0.0200515
0.017923
0.0156619
0.0134376
0.0114407
0.00981356
0.00860523
0.00777321
0.00721972
0.00683645
0.00653824
0.00627649
0.00603295
0.00580546
0.00559667
0.00540873
0.00524327
0.00508753
0.0049379
0.00479281
0.00465145
0.00451327
0.00437785
0.00424493
0.00411433
0.00398602
0.0038601
0.00373677
0.00361634
0.00349918
0.00338575
0.00327652
0.00317198
0.00307263
0.00297891
0.00289123
0.00280995
0.00273535
0.00266763
0.00260691
0.00255325
0.00250658
0.0024668
0.0024337
0.002407
0.00238638
0.00237144
0.00236176
0.00235688
0.00235636
0.00235975
0.00236663
0.00237663
0.00238943
0.00240481
0.00242258
0.00244267
0.00246504
0.00248978
0.00251702
0.00254695
0.00257985
0.00261606
0.00265598
0.00270008
0.00274895
0.00280326
0.00286381
0.00293157
0.00300771
0.00309367
0.00319121
0.00330253
0.00343042
0.00357844
0.145647
0.155232
0.16552
0.176554
0.188299
0.200859
0.214297
0.228683
0.244077
0.260536
0.27812
0.296885
0.316889
0.338193
0.360854
0.384927
0.410465
0.437513
0.466111
0.496286
0.528056
0.561425
0.596381
0.632896
0.670923
0.710396
0.751228
0.793313
0.836519
0.880696
0.925672
0.971255
1.01724
1.06339
1.10946
1.15522
1.2004
1.24474
1.28797
1.32983
1.37009
1.40848
1.44479
1.47883
1.51042
1.53943
1.56576
1.58932
1.61007
1.62797
1.64304
1.65533
1.66495
1.67203
1.67673
1.67927
1.67986
1.67873
1.67608
1.67212
1.66702
1.66095
1.6539
1.64551
1.63573
1.62442
1.61135
1.59618
1.57848
1.55773
1.53334
1.50466
1.47102
1.43178
1.38632
1.33414
1.27489
1.20841
1.1348
1.0545
0.968343
0.877619
0.784125
0.690159
0.598446
0.511912
0.433278
0.364498
0.30625
0.257853
0.2178
0.1845
0.156706
0.133554
0.114441
0.0988657
0.0863359
0.0763335
0.068343
0.0619027
0.0566074
0.0520076
0.0478993
0.044138
0.0406734
0.0375254
0.0347414
0.0323566
0.0303655
0.0287083
0.0272729
0.0259122
0.0244725
0.0228253
0.0208972
0.0186904
0.0162863
0.0138346
0.0115289
0.00956293
0.0080662
0.00705126
0.00641951
0.00602657
0.00575352
0.00553516
0.00534635
0.00517949
0.00503388
0.00489711
0.00476559
0.00463783
0.00451297
0.00439037
0.00426953
0.0041501
0.00403187
0.00391475
0.00379876
0.00368408
0.00357099
0.00345987
0.0033512
0.00324552
0.00314343
0.00304555
0.0029525
0.00286486
0.00278317
0.00270788
0.00263938
0.00257791
0.00252362
0.00247656
0.00243663
0.00240365
0.00237735
0.00235736
0.00234326
0.00233458
0.00233082
0.00233149
0.00233611
0.00234422
0.00235545
0.00236946
0.00238601
0.00240493
0.00242613
0.0024496
0.00247543
0.00250376
0.00253479
0.0025688
0.00260613
0.00264718
0.00269244
0.00274246
0.0027979
0.00285955
0.00292835
0.00300543
0.00309219
0.00319037
0.00330215
0.00343031
0.00357842
0.136195
0.145051
0.15447
0.16455
0.175254
0.186686
0.198905
0.211974
0.225947
0.240876
0.256811
0.273802
0.2919
0.311156
0.331621
0.353345
0.376374
0.400751
0.42651
0.453679
0.482278
0.512313
0.543779
0.576657
0.610915
0.646503
0.683357
0.721394
0.760516
0.800605
0.841529
0.883137
0.925265
0.967734
1.01035
1.05291
1.09521
1.13701
1.1781
1.21823
1.25717
1.29467
1.3305
1.36442
1.39624
1.42576
1.45283
1.47729
1.49902
1.5179
1.53389
1.54695
1.55714
1.56456
1.56934
1.57169
1.57182
1.57001
1.56652
1.56167
1.55575
1.54907
1.54194
1.53467
1.52685
1.51851
1.50957
1.49983
1.48899
1.47659
1.46203
1.44456
1.42328
1.39715
1.36501
1.32561
1.27768
1.21997
1.15134
1.07096
0.978435
0.874083
0.759317
0.637083
0.512388
0.392653
0.287252
0.205139
0.150312
0.118785
0.101949
0.0926226
0.0869437
0.0831834
0.080528
0.0784989
0.0767373
0.0749463
0.0728966
0.0704519
0.0675602
0.0640688
0.0600113
0.0555204
0.0508019
0.0461078
0.0416936
0.0377736
0.0344824
0.0318506
0.0298035
0.0281865
0.0268111
0.0255059
0.0241551
0.0227039
0.0211219
0.0193467
0.0172746
0.0148541
0.0122309
0.00977204
0.0078558
0.00661008
0.00588793
0.0054599
0.00516978
0.0049488
0.00477323
0.0046186
0.00447816
0.00434842
0.00422689
0.00411172
0.00400145
0.00389497
0.00379141
0.00369013
0.00359065
0.00349269
0.00339609
0.00330087
0.0032072
0.00311534
0.00302571
0.00293881
0.00285523
0.0027756
0.00270055
0.00263069
0.00256658
0.00250869
0.00245733
0.00241273
0.00237495
0.0023439
0.0023194
0.00230112
0.00228868
0.00228162
0.00227945
0.00228167
0.00228781
0.00229743
0.00231013
0.00232562
0.00234364
0.00236406
0.00238679
0.00241187
0.00243937
0.00246946
0.00250237