/*--------------------------------*- C++ -*----------------------------------*\
| =========                 |                                                 |
| \\      /  F ield         | OpenFOAM: The Open Source CFD Toolbox           |
|  \\    /   O peration     | Version:  2406                                  |
|   \\  /    A nd           | Website:  www.openfoam.com                      |
|    \\/     M anipulation  |                                                 |
\*---------------------------------------------------------------------------*/
FoamFile
{
    version     2.0;
    format      ascii;
    arch        "LSB;label=32;scalar=64";
    class       volScalarField;
    location    "600";
    object      nut;
}
// * * * * * * * * * * * * * * * * * * * * * * * * * * * * * * * * * * * * * //

dimensions      [0 2 -1 0 0 0 0];

internalField   nonuniform List<scalar> 
5619
(
4.96456e-05
5.06046e-05
5.15884e-05
5.2623e-05
5.37006e-05
5.48306e-05
5.60174e-05
5.7265e-05
5.85757e-05
5.99505e-05
6.13891e-05
6.28907e-05
6.44534e-05
6.60752e-05
6.77531e-05
6.94839e-05
7.12634e-05
7.30868e-05
7.49484e-05
7.68415e-05
7.87583e-05
8.06898e-05
8.26263e-05
8.45566e-05
8.64692e-05
8.83516e-05
9.01915e-05
9.1977e-05
9.36971e-05
9.53431e-05
9.69087e-05
9.83913e-05
9.97925e-05
0.000101118
0.000102378
0.000103586
0.000104757
0.000105908
0.000107053
0.000108204
0.000109369
0.000110551
0.00011175
0.000112961
0.000114178
0.000115389
0.000116588
0.000117764
0.000118912
0.000120028
0.000121114
0.00012218
0.000123157
0.000124027
0.000124771
0.000125362
0.00012577
0.000125959
0.00012588
0.000125471
0.000124655
0.000123326
0.000121345
0.000118527
0.000114625
0.000109307
0.000102142
9.26088e-05
8.02149e-05
6.49383e-05
4.84612e-05
3.61448e-05
3.3589e-05
3.43924e-05
3.44809e-05
3.44867e-05
3.44666e-05
3.44239e-05
3.43611e-05
3.42802e-05
3.41829e-05
3.40711e-05
3.39461e-05
3.38094e-05
3.36622e-05
3.35054e-05
3.33401e-05
3.31671e-05
3.29869e-05
3.28002e-05
3.26074e-05
3.24088e-05
3.22117e-05
3.20154e-05
3.18201e-05
3.16257e-05
3.14324e-05
3.12402e-05
3.1049e-05
3.08587e-05
3.06695e-05
3.04605e-05
3.02311e-05
2.9981e-05
2.97105e-05
2.94204e-05
2.91119e-05
2.87872e-05
2.84489e-05
2.80999e-05
2.7744e-05
2.73848e-05
2.70263e-05
2.66722e-05
2.63262e-05
2.59913e-05
2.56704e-05
2.53655e-05
2.50783e-05
2.48098e-05
2.45605e-05
2.43306e-05
2.412e-05
2.39281e-05
2.37542e-05
2.35975e-05
2.34568e-05
2.3331e-05
2.32192e-05
2.31092e-05
2.30005e-05
2.28926e-05
2.27848e-05
2.26768e-05
2.25681e-05
2.24582e-05
2.23469e-05
2.22337e-05
2.21183e-05
2.20005e-05
2.188e-05
2.17566e-05
2.16301e-05
2.15004e-05
2.13676e-05
2.12316e-05
2.10925e-05
2.09506e-05
2.0806e-05
2.06591e-05
2.05105e-05
2.03606e-05
2.02101e-05
2.00598e-05
1.99107e-05
1.97636e-05
1.96197e-05
1.948e-05
1.93459e-05
1.92184e-05
1.90988e-05
1.89881e-05
1.88875e-05
1.87976e-05
1.87193e-05
1.86528e-05
1.85985e-05
1.85561e-05
1.85254e-05
1.85058e-05
1.84963e-05
1.84962e-05
1.85045e-05
1.85201e-05
1.85422e-05
1.85707e-05
1.8607e-05
1.86553e-05
1.8725e-05
1.88324e-05
1.90025e-05
1.92663e-05
1.96501e-05
2.01489e-05
2.06659e-05
2.08467e-05
1.95834e-05
0.00021777
0.00022918
0.00024244
0.000256297
0.000270858
0.000286067
0.000301929
0.000318433
0.000335568
0.000353312
0.000371637
0.000390504
0.000409865
0.000429664
0.000449833
0.000470299
0.000490977
0.000511774
0.000532587
0.000553302
0.000573795
0.000593935
0.000613579
0.000632579
0.000650779
0.000668021
0.000684145
0.000698998
0.000712436
0.000724332
0.000734589
0.000743148
0.00075
0.000755205
0.000758896
0.00076129
0.000762684
0.000763447
0.000763999
0.000764781
0.000766225
0.000768732
0.000772638
0.000778213
0.000785644
0.000795041
0.00080644
0.000819804
0.000835028
0.000851937
0.000870288
0.000889757
0.000911117
0.000934033
0.000958369
0.000983975
0.00101066
0.00103819
0.00106624
0.00109438
0.00112201
0.00114835
0.00117224
0.00119208
0.00120548
0.00120884
0.00119654
0.00115964
0.00108395
0.00094855
0.000731042
0.00043774
0.00016176
3.73259e-05
2.03691e-05
1.94308e-05
1.94803e-05
1.96084e-05
1.97644e-05
1.99412e-05
2.01373e-05
2.03501e-05
2.05763e-05
2.08115e-05
2.10513e-05
2.12915e-05
2.15276e-05
2.17553e-05
2.19706e-05
2.21695e-05
2.23469e-05
2.24975e-05
2.2644e-05
2.27923e-05
2.29423e-05
2.30937e-05
2.32462e-05
2.33999e-05
2.35547e-05
2.37104e-05
2.38674e-05
2.40426e-05
2.42373e-05
2.44525e-05
2.46895e-05
2.49492e-05
2.52322e-05
2.55389e-05
2.58695e-05
2.62235e-05
2.65999e-05
2.6997e-05
2.74124e-05
2.78429e-05
2.82845e-05
2.87328e-05
2.91829e-05
2.96297e-05
3.00682e-05
3.04938e-05
3.09024e-05
3.12906e-05
3.16559e-05
3.19964e-05
3.23111e-05
3.25996e-05
3.28623e-05
3.30997e-05
3.33134e-05
3.35259e-05
3.37382e-05
3.39514e-05
3.41663e-05
3.43839e-05
3.46052e-05
3.4831e-05
3.50623e-05
3.53e-05
3.55448e-05
3.57976e-05
3.60592e-05
3.63302e-05
3.66113e-05
3.69029e-05
3.72055e-05
3.75194e-05
3.78445e-05
3.81808e-05
3.85277e-05
3.88847e-05
3.92505e-05
3.96237e-05
4.00025e-05
4.03843e-05
4.07663e-05
4.11451e-05
4.15167e-05
4.18765e-05
4.22198e-05
4.25412e-05
4.2835e-05
4.30955e-05
4.33167e-05
4.34928e-05
4.3618e-05
4.36865e-05
4.36926e-05
4.36302e-05
4.34925e-05
4.3271e-05
4.29551e-05
4.25298e-05
4.20035e-05
4.13782e-05
4.0616e-05
3.96686e-05
3.8475e-05
3.69652e-05
3.50721e-05
3.27607e-05
3.00765e-05
2.72042e-05
2.4511e-05
2.25528e-05
2.21282e-05
2.48023e-05
3.63038e-05
0.000590419
0.000624258
0.000662437
0.00070177
0.000742432
0.000784268
0.00082729
0.000871485
0.000916846
0.000963353
0.00101097
0.00105963
0.00110927
0.00115979
0.00121108
0.001263
0.0013154
0.00136812
0.00142096
0.0014737
0.0015261
0.0015779
0.00162881
0.00167849
0.00172661
0.00177278
0.00181661
0.00185769
0.00189559
0.00192992
0.00196032
0.00198649
0.00200825
0.00202559
0.00203867
0.00204788
0.00205382
0.00205733
0.00205938
0.00206105
0.00206345
0.00206759
0.00207438
0.00208456
0.00209865
0.00211699
0.0021397
0.00216675
0.00219796
0.00223302
0.00227157
0.00231322
0.00235931
0.00240845
0.00246007
0.00251358
0.00256828
0.00262327
0.00267743
0.00272926
0.00277683
0.00281759
0.00284811
0.00286381
0.00285841
0.00282337
0.00274706
0.00261404
0.00240527
0.00210145
0.00169414
0.00120701
0.000713459
0.000321319
0.000110424
4.92814e-05
4.26781e-05
4.35766e-05
4.53466e-05
4.72091e-05
4.90421e-05
5.07929e-05
5.24334e-05
5.39433e-05
5.53072e-05
5.65143e-05
5.75574e-05
5.84338e-05
5.91446e-05
5.96739e-05
6.00577e-05
6.03852e-05
6.06627e-05
6.08926e-05
6.10766e-05
6.12162e-05
6.1313e-05
6.13682e-05
6.13833e-05
6.13592e-05
6.12979e-05
6.11792e-05
6.09949e-05
6.07404e-05
6.04126e-05
6.00118e-05
5.95422e-05
5.90128e-05
5.84368e-05
5.78309e-05
5.72144e-05
5.66069e-05
5.60268e-05
5.54895e-05
5.50065e-05
5.45847e-05
5.42266e-05
5.39311e-05
5.36941e-05
5.35094e-05
5.33701e-05
5.32687e-05
5.31983e-05
5.31522e-05
5.3125e-05
5.31119e-05
5.31092e-05
5.31133e-05
5.31224e-05
5.31358e-05
5.31533e-05
5.31751e-05
5.32013e-05
5.32323e-05
5.32682e-05
5.33096e-05
5.33568e-05
5.34103e-05
5.34708e-05
5.35389e-05
5.36151e-05
5.37002e-05
5.37947e-05
5.38994e-05
5.40148e-05
5.41413e-05
5.42792e-05
5.44285e-05
5.45892e-05
5.47605e-05
5.49414e-05
5.51305e-05
5.53255e-05
5.55234e-05
5.57206e-05
5.59122e-05
5.60928e-05
5.62557e-05
5.63932e-05
5.64968e-05
5.65571e-05
5.65641e-05
5.65073e-05
5.63758e-05
5.6159e-05
5.58464e-05
5.5428e-05
5.48948e-05
5.42386e-05
5.34527e-05
5.25324e-05
5.14782e-05
5.03484e-05
4.91436e-05
4.78729e-05
4.656e-05
4.52504e-05
4.40225e-05
4.30009e-05
4.23722e-05
4.24009e-05
4.34521e-05
4.60462e-05
5.10419e-05
6.02112e-05
7.81215e-05
0.000121797
0.0011774
0.00123681
0.0013031
0.00137075
0.00144006
0.00151087
0.00158327
0.00165733
0.00173311
0.00181064
0.0018899
0.00197085
0.00205341
0.00213745
0.00222284
0.0023094
0.00239694
0.00248522
0.00257396
0.00266287
0.00275159
0.00283973
0.00292683
0.00301239
0.00309584
0.00317656
0.00325388
0.00332708
0.00339543
0.00345821
0.00351475
0.00356451
0.00360712
0.00364245
0.00367068
0.00369234
0.00370829
0.00371974
0.00372813
0.00373505
0.00374216
0.00375102
0.00376304
0.00377939
0.00380094
0.00382828
0.00386168
0.00390115
0.00394647
0.00399723
0.00405288
0.00411275
0.00417826
0.0042465
0.00431594
0.0043851
0.00445226
0.0045154
0.00457205
0.00461917
0.00465304
0.00466905
0.0046615
0.00462336
0.00454608
0.00441952
0.00423222
0.00397256
0.00363117
0.00320516
0.00270319
0.002148
0.00157409
0.00102646
0.000566961
0.000265356
0.000143569
0.000140956
0.000150796
0.00015605
0.000159779
0.000162832
0.000165458
0.000167703
0.000169587
0.000171131
0.000172361
0.0001733
0.000173969
0.000174348
0.000174542
0.000174564
0.000174417
0.000174105
0.000173631
0.000172998
0.000172207
0.000171262
0.000170164
0.000168911
0.000167506
0.000165739
0.000163562
0.000160953
0.000157898
0.0001544
0.000150484
0.000146199
0.000141618
0.000136833
0.000131951
0.000127083
0.000122335
0.000117798
0.000113545
0.000109625
0.000106065
0.000102874
0.000100041
9.75476e-05
9.53668e-05
9.34681e-05
9.18204e-05
9.03935e-05
8.9159e-05
8.80917e-05
8.71694e-05
8.63706e-05
8.56785e-05
8.50123e-05
8.43656e-05
8.37357e-05
8.31195e-05
8.25148e-05
8.19194e-05
8.13319e-05
8.07511e-05
8.01761e-05
7.96067e-05
7.90428e-05
7.84847e-05
7.79331e-05
7.73889e-05
7.68533e-05
7.63279e-05
7.58142e-05
7.5314e-05
7.48291e-05
7.43613e-05
7.39121e-05
7.34831e-05
7.30752e-05
7.2689e-05
7.23244e-05
7.19808e-05
7.16568e-05
7.13503e-05
7.10583e-05
7.07772e-05
7.05032e-05
7.02319e-05
6.99596e-05
6.96829e-05
6.94e-05
6.9111e-05
6.88187e-05
6.85295e-05
6.8254e-05
6.80075e-05
6.78113e-05
6.76926e-05
6.77301e-05
6.80125e-05
6.86014e-05
6.95818e-05
7.10638e-05
7.31885e-05
7.61329e-05
8.01156e-05
8.54033e-05
9.23285e-05
0.000101343
0.000113168
0.000129181
0.000152363
0.000189886
0.000263035
0.00192993
0.00201418
0.00210776
0.00220288
0.00230001
0.00239904
0.00250021
0.00260371
0.00270968
0.0028182
0.00292929
0.0030429
0.00315894
0.00327728
0.00339774
0.0035201
0.00364412
0.00376949
0.00389588
0.00402288
0.00415002
0.00427678
0.00440253
0.00452657
0.00464812
0.00476632
0.00488021
0.00498879
0.00509106
0.00518601
0.00527274
0.0053505
0.00541879
0.00547739
0.00552649
0.00556666
0.00559888
0.00562448
0.00564509
0.00566252
0.00567867
0.00569536
0.00571429
0.00573689
0.00576431
0.00579731
0.00583633
0.00588141
0.00593226
0.00598823
0.00604835
0.00611129
0.00617834
0.00624569
0.00631038
0.00636981
0.00642124
0.00646157
0.00648723
0.0064941
0.00647746
0.00643192
0.00635145
0.00622949
0.00605928
0.00583438
0.00554961
0.00520231
0.00479362
0.00432933
0.00381934
0.00327551
0.00270941
0.0021329
0.00156362
0.00103488
0.000602142
0.000323242
0.00021475
0.000248823
0.000315747
0.00034656
0.000358312
0.000363123
0.000365706
0.000367612
0.000369195
0.00037052
0.000371592
0.0003724
0.000372955
0.000373252
0.000373286
0.000373048
0.000372534
0.000371735
0.000370642
0.000369248
0.000367543
0.000365507
0.000363127
0.000360007
0.000356003
0.000351027
0.000345005
0.000337892
0.000329689
0.000320449
0.000310289
0.000299382
0.000287954
0.000276264
0.00026458
0.000253158
0.000242218
0.000231933
0.000222421
0.000213746
0.00020593
0.000198954
0.000192776
0.000187337
0.000182568
0.0001784
0.000174764
0.000171597
0.000168841
0.000166438
0.00016434
0.000162311
0.000160326
0.000158379
0.000156459
0.000154558
0.000152672
0.000150794
0.000148921
0.00014705
0.00014518
0.000143309
0.00014144
0.000139573
0.000137712
0.000135859
0.000134022
0.000132204
0.000130414
0.000128658
0.000126945
0.000125284
0.000123683
0.000122152
0.000120702
0.000119341
0.000118079
0.000116926
0.000115893
0.000114988
0.000114221
0.000113603
0.000113144
0.000112856
0.000112752
0.000112846
0.000113154
0.000113695
0.000114489
0.000115561
0.000116935
0.000118644
0.000120719
0.000123273
0.000126493
0.000130403
0.00013508
0.000140618
0.000147127
0.000154743
0.000163634
0.000174031
0.000186277
0.000200923
0.000218902
0.000241842
0.000272641
0.000316374
0.000381118
0.00278796
0.00289554
0.00301474
0.00313587
0.0032595
0.00338561
0.00351461
0.00364677
0.00378233
0.0039214
0.00406401
0.00421012
0.00435963
0.00451237
0.00466813
0.00482665
0.00498763
0.00515072
0.00531549
0.00548144
0.005648
0.00581449
0.00598015
0.0061441
0.00630535
0.00646283
0.00661536
0.00676173
0.00690071
0.00703112
0.00715187
0.00726207
0.00736107
0.00744856
0.00752457
0.00758952
0.00764421
0.00768978
0.00772764
0.00775939
0.00778677
0.0078115
0.00783522
0.00785941
0.00788529
0.00791377
0.00794541
0.00798037
0.00801838
0.00805875
0.00810038
0.00814174
0.00818152
0.00821979
0.00825137
0.00827291
0.00828126
0.00827308
0.00824477
0.00819244
0.00811192
0.00799893
0.00784917
0.00765867
0.00742413
0.00714337
0.0068158
0.00644278
0.00602764
0.00557536
0.00509171
0.00458227
0.00405167
0.00350351
0.00294139
0.00237127
0.00180639
0.00127454
0.000822292
0.000501382
0.000337369
0.000321867
0.000413878
0.000504189
0.00054242
0.000557641
0.000563725
0.000566556
0.000568375
0.000570029
0.000571624
0.000573119
0.00057446
0.000575602
0.000576506
0.000577137
0.00057746
0.000577439
0.000577039
0.000576206
0.000574902
0.00057275
0.0005695
0.00056497
0.000558973
0.000551345
0.000541973
0.000530819
0.000517942
0.00050351
0.000487803
0.00047119
0.000454094
0.000436952
0.000420169
0.00040409
0.000388977
0.000375003
0.000362263
0.000350781
0.00034053
0.000331445
0.000323439
0.000316414
0.000310268
0.000304901
0.000300224
0.00029614
0.000292558
0.000289097
0.0002857
0.000282349
0.000279027
0.000275722
0.000272423
0.000269119
0.000265804
0.000262474
0.000259125
0.000255757
0.000252372
0.000248974
0.00024557
0.000242166
0.000238775
0.000235408
0.00023208
0.000228806
0.000225604
0.000222493
0.000219493
0.000216624
0.000213907
0.000211363
0.000209015
0.000206882
0.000204986
0.000203347
0.000201985
0.000200918
0.000200166
0.000199747
0.000199677
0.000199973
0.000200653
0.000201732
0.000203226
0.000205153
0.000207531
0.00021038
0.000213726
0.000217599
0.000222199
0.000227556
0.000233681
0.00024063
0.000248482
0.000257349
0.00026739
0.000278829
0.000291988
0.000307328
0.000325489
0.000347317
0.000373771
0.000405362
0.000440263
0.00369078
0.00382022
0.00396336
0.00410909
0.00425794
0.00441003
0.00456588
0.00472585
0.00489021
0.00505912
0.00523261
0.00541064
0.00559306
0.00577971
0.00597034
0.00616466
0.00636232
0.0065629
0.00676592
0.0069708
0.00717686
0.00738331
0.00758927
0.00779371
0.00799549
0.00819338
0.00838606
0.00857216
0.00875029
0.00891912
0.00907741
0.00922409
0.00935829
0.00947942
0.00958716
0.00968152
0.00976278
0.00983152
0.00988857
0.00993493
0.0099718
0.0100004
0.0100221
0.0100381
0.0100497
0.0100577
0.0100631
0.0100663
0.0100675
0.0100666
0.0100631
0.0100559
0.0100439
0.0100297
0.0100083
0.00997647
0.0099315
0.00987062
0.00979103
0.00968981
0.00956401
0.0094107
0.00922717
0.00901106
0.0087606
0.00847475
0.00815335
0.00779716
0.00740783
0.00698767
0.00653944
0.00606603
0.00557027
0.00505469
0.00452158
0.00397313
0.00341216
0.00284348
0.00227683
0.0017316
0.00124093
0.000847786
0.000587019
0.000466238
0.000465827
0.000538015
0.000611852
0.000652371
0.000668689
0.000674978
0.000678195
0.000680814
0.000683569
0.000686599
0.000689855
0.000693241
0.000696652
0.000699988
0.000703155
0.000706038
0.000708572
0.000710687
0.000712097
0.000712526
0.000711628
0.000709018
0.000704306
0.000697146
0.000687302
0.000674711
0.000659525
0.000642119
0.000623052
0.000602996
0.000582642
0.000562621
0.000543444
0.000525481
0.000508959
0.000493986
0.000480576
0.000468677
0.000458193
0.000449004
0.000440982
0.000433999
0.000427936
0.000422659
0.000418037
0.000413598
0.00040925
0.000404961
0.000400708
0.00039647
0.000392231
0.000387977
0.0003837
0.000379391
0.000375048
0.000370668
0.000366256
0.000361816
0.000357357
0.000352892
0.000348436
0.000344007
0.000339624
0.000335311
0.000331092
0.000326994
0.000323042
0.000319266
0.000315693
0.00031235
0.000309264
0.00030646
0.000303962
0.000301792
0.000299968
0.000298507
0.000297425
0.000296734
0.000296445
0.000296566
0.000297105
0.000298068
0.000299461
0.00030129
0.000303562
0.000306287
0.000309475
0.000313145
0.000317317
0.000322148
0.000327614
0.00033374
0.000340579
0.0003482
0.000356692
0.000366167
0.000376752
0.000388578
0.000401737
0.000416199
0.000431635
0.000447095
0.000460657
0.00458054
0.00473037
0.00489572
0.00506458
0.00523726
0.00541404
0.0055955
0.00578206
0.00597401
0.00617152
0.00637463
0.00658327
0.00679732
0.00701657
0.00724076
0.00746959
0.00770266
0.00793953
0.00817966
0.00842241
0.00866703
0.00891266
0.00915831
0.00940287
0.00964509
0.00988363
0.0101171
0.0103439
0.0105625
0.0107716
0.0109695
0.011155
0.0113268
0.0114838
0.0116253
0.0117505
0.0118591
0.0119507
0.0120254
0.0120834
0.0121252
0.0121514
0.0121627
0.0121603
0.0121452
0.0121186
0.0120819
0.0120364
0.0119832
0.0119237
0.0118586
0.0117888
0.0117145
0.0116378
0.0115599
0.0114773
0.0113874
0.0112881
0.0111771
0.011052
0.0109103
0.0107495
0.0105673
0.0103614
0.0101298
0.00987091
0.00958358
0.00926716
0.00892145
0.00854671
0.00814358
0.00771304
0.00725628
0.0067747
0.00626988
0.00574365
0.00519814
0.00463607
0.00406111
0.00347854
0.0028966
0.00232882
0.00179698
0.00133189
0.000967009
0.000723968
0.000599755
0.000566605
0.000581876
0.000606884
0.000624503
0.000634458
0.0006405
0.000645242
0.00064993
0.000655052
0.000660754
0.000667035
0.000673833
0.000681039
0.000688621
0.000697094
0.000706412
0.000716459
0.000726943
0.000737366
0.000747004
0.000754927
0.00076008
0.000761449
0.00075827
0.000750228
0.000737568
0.000721049
0.00070178
0.000680987
0.000659804
0.000639145
0.000619648
0.000601701
0.000585486
0.000571035
0.000558289
0.000547129
0.00053741
0.000528982
0.000521699
0.000515396
0.0005099
0.00050467
0.000499578
0.000494577
0.000489634
0.000484722
0.00047982
0.000474911
0.000469981
0.000465022
0.000460027
0.000454997
0.000449933
0.000444843
0.000439738
0.000434633
0.000429547
0.000424501
0.000419521
0.000414633
0.000409868
0.000405256
0.000400827
0.000396615
0.000392648
0.000388956
0.000385566
0.000382502
0.000379783
0.000377427
0.000375447
0.000373849
0.00037264
0.00037182
0.000371387
0.000371335
0.000371659
0.000372351
0.000373404
0.000374811
0.000376566
0.000378664
0.000381106
0.00038389
0.000387022
0.000390509
0.000394438
0.000398778
0.000403535
0.000408719
0.000414334
0.00042038
0.000426833
0.00043364
0.000440688
0.000447783
0.00045462
0.00046078
0.000465842
0.00540276
0.00557121
0.00575663
0.00594663
0.00614118
0.00634069
0.00654578
0.00675688
0.00697431
0.00719821
0.00742863
0.00766552
0.00790872
0.00815805
0.00841325
0.00867399
0.00893989
0.00921046
0.00948515
0.00976329
0.0100441
0.0103266
0.0106098
0.0108926
0.0111735
0.0114513
0.0117242
0.0119908
0.0122493
0.0124979
0.012735
0.0129588
0.0131676
0.0133599
0.013534
0.0136888
0.0138228
0.0139352
0.014025
0.0140919
0.0141355
0.0141559
0.0141536
0.0141296
0.0140849
0.0140213
0.0139407
0.0138453
0.0137377
0.0136204
0.013496
0.0133668
0.0132351
0.0131023
0.0129739
0.0128492
0.0127258
0.0126012
0.0124734
0.0123399
0.0121982
0.0120458
0.0118801
0.0116987
0.0114991
0.0112794
0.0110375
0.010772
0.0104814
0.0101647
0.00982099
0.0094496
0.00904996
0.00862167
0.0081645
0.00767842
0.00716377
0.0066214
0.00605291
0.00546098
0.00484976
0.00422541
0.00359672
0.0029762
0.00238145
0.00183619
0.00136877
0.00100502
0.000756231
0.000610852
0.00053954
0.000510251
0.000500405
0.00049857
0.000500071
0.000503165
0.000507235
0.000512094
0.000517712
0.000524085
0.000531306
0.000540143
0.000550995
0.00056433
0.000580572
0.000600034
0.000622782
0.00064845
0.000676037
0.000703771
0.000729193
0.000749564
0.000762556
0.000766938
0.000762893
0.00075182
0.000735786
0.000716935
0.000697083
0.00067755
0.000659165
0.00064237
0.000627338
0.000614071
0.000602474
0.00059241
0.000583728
0.000576243
0.000569743
0.000563613
0.000557691
0.000551909
0.000546222
0.000540599
0.000535012
0.000529441
0.000523867
0.00051828
0.000512674
0.000507045
0.000501399
0.000495742
0.000490089
0.000484455
0.000478863
0.000473338
0.000467909
0.000462605
0.000457459
0.000452505
0.000447776
0.000443304
0.00043912
0.000435252
0.000431724
0.000428556
0.000425763
0.000423354
0.000421332
0.000419695
0.000418436
0.000417541
0.000416995
0.000416779
0.000416872
0.000417253
0.000417903
0.000418801
0.000419931
0.00042128
0.000422834
0.000424584
0.000426523
0.000428646
0.000430946
0.000433454
0.000436141
0.000438995
0.000441997
0.000445124
0.000448342
0.000451609
0.000454872
0.000458068
0.00046114
0.000464056
0.000466849
0.00610497
0.00628956
0.00649207
0.00670025
0.00691363
0.00713278
0.0073583
0.00759063
0.00783007
0.00807678
0.00833078
0.00859202
0.00886038
0.00913567
0.00941764
0.009706
0.0100003
0.0103002
0.010605
0.0109141
0.0112267
0.0115417
0.0118583
0.012175
0.0124906
0.0128035
0.0131121
0.0134147
0.0137094
0.0139941
0.014267
0.0145258
0.0147685
0.0149929
0.0151971
0.015379
0.0155368
0.0156688
0.0157738
0.0158506
0.0158987
0.0159178
0.0159084
0.0158713
0.015808
0.0157205
0.0156113
0.0154832
0.0153396
0.0151837
0.015019
0.0148486
0.0146754
0.0145021
0.0143304
0.0141662
0.0140101
0.0138599
0.0137134
0.0135684
0.0134226
0.0132736
0.013119
0.0129565
0.0127838
0.0125986
0.012399
0.012183
0.0119487
0.0116945
0.0114185
0.0111192
0.0107947
0.0104433
0.0100631
0.00965227
0.00920893
0.00873134
0.00821802
0.00766799
0.00708108
0.00645838
0.00580276
0.0051196
0.00441763
0.00370986
0.0030146
0.00235621
0.00176451
0.00127072
0.000897953
0.000649191
0.000503669
0.000428194
0.000392767
0.000377553
0.000371739
0.000370144
0.000370506
0.000371891
0.000373995
0.000376947
0.000381057
0.000386841
0.000394969
0.00040629
0.000421832
0.00044275
0.000470171
0.000504845
0.000546578
0.000593549
0.000641912
0.000686284
0.00072132
0.000743615
0.000752695
0.000750578
0.000740516
0.000725788
0.000709017
0.000691987
0.000675758
0.000660873
0.000647547
0.000635809
0.000625594
0.000616756
0.000609075
0.000601868
0.000594942
0.000588208
0.000581609
0.000575107
0.000568671
0.000562275
0.000555901
0.000549536
0.000543172
0.000536807
0.000530446
0.000524099
0.000517782
0.000511515
0.000505323
0.000499234
0.000493279
0.000487492
0.000481909
0.000476562
0.000471488
0.000466718
0.000462282
0.000458204
0.000454506
0.000451203
0.000448303
0.000445807
0.00044371
0.000442
0.000440659
0.000439663
0.000438985
0.000438596
0.000438464
0.00043856
0.000438855
0.000439322
0.00043994
0.000440689
0.000441556
0.000442527
0.000443594
0.000444751
0.000445992
0.000447313
0.000448721
0.000450206
0.000451763
0.000453386
0.000455072
0.00045682
0.000458633
0.000460523
0.000462515
0.000464652
0.000467002
0.00663657
0.00683397
0.00704944
0.00727159
0.00749943
0.00773373
0.00797503
0.00822379
0.00848025
0.00874457
0.00901678
0.00929682
0.0095846
0.00987995
0.0101827
0.0104924
0.0108089
0.0111316
0.01146
0.0117934
0.012131
0.0124718
0.0128149
0.0131588
0.0135022
0.0138436
0.0141813
0.0145133
0.0148378
0.0151525
0.0154553
0.0157438
0.0160155
0.0162682
0.0164994
0.0167067
0.016888
0.0170414
0.0171652
0.0172582
0.0173195
0.0173489
0.0173468
0.017314
0.0172523
0.0171636
0.0170505
0.0169161
0.0167636
0.0165962
0.0164173
0.0162298
0.0160367
0.0158404
0.0156428
0.0154455
0.015253
0.0150688
0.0148915
0.0147198
0.0145522
0.0143871
0.0142229
0.0140579
0.0138902
0.0137182
0.0135402
0.0133545
0.0131593
0.0129529
0.0127336
0.0124993
0.012248
0.0119774
0.0116848
0.0113676
0.0110226
0.0106465
0.0102358
0.00978701
0.00929658
0.00876129
0.00817848
0.00754655
0.00686553
0.00613798
0.00537009
0.00457309
0.00376504
0.00297243
0.00223105
0.00158371
0.00107134
0.000715799
0.000504223
0.000395118
0.000344123
0.000321147
0.000310367
0.000304574
0.000300792
0.000297477
0.00029435
0.000291505
0.000289239
0.000288041
0.000288629
0.00029201
0.000299557
0.000313073
0.00033475
0.00036689
0.000411151
0.000467202
0.000531264
0.000595859
0.000652007
0.000692959
0.000716637
0.000725228
0.000723002
0.000714274
0.000702354
0.000689392
0.000676625
0.000664696
0.00065391
0.000644338
0.000635878
0.000627894
0.000620188
0.000612661
0.000605256
0.000597936
0.00059067
0.000583438
0.000576222
0.000569011
0.000561802
0.000554598
0.000547408
0.000540247
0.000533137
0.000526104
0.000519179
0.000512396
0.000505791
0.000499403
0.000493268
0.000487426
0.00048191
0.000476753
0.000471982
0.000467622
0.000463689
0.000460191
0.000457133
0.000454509
0.000452305
0.000450502
0.000449073
0.000447986
0.000447207
0.000446699
0.000446424
0.000446348
0.000446437
0.000446664
0.000447003
0.000447438
0.000447952
0.000448535
0.000449182
0.000449888
0.000450653
0.000451477
0.000452363
0.000453318
0.000454346
0.000455454
0.000456654
0.00045796
0.00045939
0.000460972
0.00046274
0.000464736
0.000467019
0.00695279
0.00715882
0.00738208
0.00761278
0.00784947
0.00809312
0.00834422
0.00860321
0.00887031
0.00914564
0.00942923
0.00972105
0.010021
0.010329
0.0106448
0.0109681
0.0112987
0.011636
0.0119796
0.0123288
0.0126828
0.0130407
0.0134013
0.0137635
0.0141259
0.0144869
0.0148447
0.0151976
0.0155435
0.0158802
0.0162055
0.0165169
0.016812
0.0170883
0.0173433
0.0175747
0.0177801
0.0179576
0.0181055
0.0182223
0.0183074
0.0183604
0.0183814
0.0183714
0.0183316
0.0182639
0.0181705
0.018054
0.0179169
0.0177621
0.0175923
0.0174099
0.0172175
0.0170171
0.0168104
0.0165992
0.0163845
0.0161683
0.015955
0.0157459
0.0155407
0.015339
0.0151405
0.0149445
0.0147504
0.0145574
0.0143647
0.0141713
0.0139762
0.0137783
0.0135766
0.0133695
0.0131556
0.0129331
0.0126996
0.0124525
0.0121889
0.0119052
0.0115974
0.0112609
0.0108909
0.0104822
0.0100294
0.00952727
0.00897078
0.00835582
0.00767962
0.0069417
0.00614504
0.00529779
0.0044156
0.00352445
0.00266362
0.00188644
0.00125331
0.000809048
0.000550316
0.000423157
0.000365405
0.000337814
0.000322147
0.000309902
0.000298558
0.000287275
0.000275861
0.00026441
0.000253189
0.000242625
0.000233363
0.00022636
0.00022301
0.000225287
0.000235837
0.000257897
0.000294739
0.000348198
0.000416283
0.00049138
0.00056183
0.000617253
0.000653344
0.000672047
0.000678334
0.000677117
0.000671942
0.000664983
0.000657475
0.000650075
0.000643072
0.000636203
0.000629352
0.000622453
0.00061548
0.000608418
0.000601259
0.000593999
0.000586639
0.000579181
0.000571636
0.000564021
0.00055636
0.000548682
0.000541023
0.000533422
0.000525925
0.000518575
0.000511423
0.000504514
0.000497894
0.000491608
0.000485695
0.000480189
0.00047512
0.000470511
0.000466374
0.000462718
0.000459539
0.000456826
0.00045456
0.000452715
0.000451256
0.000450148
0.000449347
0.000448814
0.000448506
0.000448386
0.000448419
0.000448575
0.00044883
0.000449166
0.000449569
0.000450031
0.000450547
0.000451115
0.000451738
0.000452418
0.000453161
0.000453974
0.000454868
0.000455852
0.000456942
0.000458154
0.00045951
0.000461037
0.000462768
0.000464745
0.00046702
0.00702209
0.0072319
0.00745698
0.00768996
0.00792901
0.00817532
0.00842932
0.00869143
0.00896183
0.00924064
0.00952786
0.00982347
0.0101274
0.0104396
0.0107598
0.0110879
0.0114235
0.0117663
0.0121157
0.0124712
0.0128319
0.0131969
0.0135653
0.0139358
0.0143071
0.0146777
0.0150459
0.01541
0.0157679
0.0161177
0.0164571
0.0167838
0.0170955
0.0173899
0.0176645
0.0179172
0.0181457
0.0183481
0.0185228
0.0186686
0.0187844
0.0188697
0.0189247
0.0189498
0.0189457
0.018914
0.018856
0.0187736
0.0186687
0.0185433
0.0183992
0.0182384
0.0180626
0.0178735
0.0176727
0.0174614
0.0172411
0.017013
0.0167781
0.0165387
0.0162977
0.0160557
0.015813
0.01557
0.015327
0.0150843
0.014842
0.0146
0.0143582
0.0141165
0.0138747
0.0136323
0.013389
0.0131442
0.0128972
0.012647
0.0123919
0.0121301
0.0118588
0.0115748
0.0112738
0.010951
0.0106005
0.010216
0.00979069
0.00931774
0.0087907
0.00820406
0.00755405
0.00683958
0.00606352
0.00523447
0.00436911
0.00349507
0.00265387
0.00190133
0.00129912
0.000888197
0.00065496
0.000538331
0.000478452
0.000439349
0.00040778
0.000378976
0.000351472
0.000324955
0.000299455
0.000275069
0.000251894
0.000230088
0.000209996
0.000192314
0.000178242
0.000169581
0.000168789
0.000178997
0.000203862
0.000246676
0.000307892
0.000381592
0.000455095
0.000515367
0.000556711
0.000581328
0.000594517
0.000600892
0.0006034
0.000603707
0.000602783
0.000601209
0.000599042
0.000596305
0.000593026
0.000589236
0.000584964
0.000580237
0.000575082
0.00056953
0.000563613
0.000557372
0.000550852
0.000544106
0.000537193
0.000530176
0.000523123
0.000516103
0.000509186
0.000502442
0.000495934
0.000489725
0.000483868
0.000478412
0.000473395
0.000468845
0.000464781
0.000461212
0.000458135
0.000455536
0.000453394
0.000451677
0.00045035
0.000449369
0.000448691
0.00044827
0.000448064
0.000448033
0.000448143
0.000448363
0.00044867
0.000449048
0.000449484
0.000449971
0.000450506
0.000451088
0.00045172
0.000452407
0.000453154
0.000453971
0.000454866
0.000455851
0.000456941
0.000458153
0.00045951
0.000461037
0.000462768
0.000464745
0.00046702
0.00683336
0.0070416
0.00726215
0.00749077
0.00772532
0.00796722
0.00821684
0.00847458
0.0087406
0.00901498
0.00929772
0.00958882
0.00988822
0.0101959
0.0105116
0.0108354
0.0111668
0.0115056
0.0118512
0.0122032
0.0125608
0.0129231
0.0132892
0.013658
0.0140282
0.0143985
0.0147672
0.0151327
0.0154932
0.0158469
0.0161917
0.0165255
0.0168463
0.0171518
0.01744
0.0177089
0.0179564
0.0181809
0.0183808
0.0185548
0.0187018
0.0188213
0.0189128
0.0189764
0.0190126
0.019022
0.0190055
0.0189642
0.0188991
0.0188117
0.018703
0.0185743
0.0184269
0.0182619
0.0180805
0.0178837
0.0176725
0.0174477
0.0172102
0.0169612
0.0167013
0.0164329
0.0161572
0.0158747
0.0155857
0.0152909
0.0149904
0.0146845
0.0143732
0.0140564
0.0137338
0.0134052
0.0130706
0.0127297
0.0123828
0.01203
0.0116719
0.0113091
0.0109423
0.010572
0.0101987
0.00982233
0.00944183
0.00905513
0.00865865
0.00824727
0.00781458
0.00735363
0.00685815
0.00632385
0.00574968
0.00513878
0.00449947
0.00384614
0.00320002
0.00258884
0.00204439
0.00159633
0.00126174
0.00103508
0.000889028
0.000787683
0.000707186
0.000635017
0.000567163
0.000503405
0.000444601
0.000391451
0.000344061
0.000301954
0.00026435
0.000230523
0.000200124
0.000173368
0.000151074
0.000134569
0.000125587
0.000126339
0.000139793
0.000169525
0.000217542
0.000279391
0.00034225
0.00039321
0.000428488
0.000451614
0.000467202
0.000478257
0.000486496
0.000493509
0.000499504
0.00050455
0.000508693
0.000511971
0.000514413
0.000516042
0.000516881
0.000516953
0.000516285
0.00051491
0.00051287