/*--------------------------------*- C++ -*----------------------------------*\
| =========                 |                                                 |
| \\      /  F ield         | OpenFOAM: The Open Source CFD Toolbox           |
|  \\    /   O peration     | Version:  2406                                  |
|   \\  /    A nd           | Website:  www.openfoam.com                      |
|    \\/     M anipulation  |                                                 |
\*---------------------------------------------------------------------------*/
FoamFile
{
    version     2.0;
    format      ascii;
    arch        "LSB;label=32;scalar=64";
    class       volScalarField;
    location    "600";
    object      p;
}
// * * * * * * * * * * * * * * * * * * * * * * * * * * * * * * * * * * * * * //

dimensions      [0 2 -2 0 0 0 0];

internalField   nonuniform List<scalar> 
5619
(
-0.00723208
0.00474211
0.00720209
0.0114821
0.0145656
0.0173239
0.019354
0.0206406
0.0210609
0.0205403
0.0189967
0.0163472
0.0124959
0.00733135
0.000720011
-0.00749293
-0.0174875
-0.0294653
-0.0436509
-0.0602872
-0.0796354
-0.101971
-0.127581
-0.156761
-0.189806
-0.227007
-0.268643
-0.314972
-0.366223
-0.422582
-0.484181
-0.551082
-0.623261
-0.700587
-0.782806
-0.86951
-0.960123
-1.05387
-1.14977
-1.24661
-1.34295
-1.43711
-1.52718
-1.61108
-1.68655
-1.75122
-1.8027
-1.83859
-1.85661
-1.85464
-1.83072
-1.78334
-1.71111
-1.61273
-1.48767
-1.33627
-1.15969
-0.960084
-0.740614
-0.505573
-0.260446
-0.011992
0.231711
0.461244
0.665927
0.834122
0.954049
1.01567
1.01466
0.959173
0.876404
0.806165
0.773939
0.773168
0.784462
0.798402
0.813673
0.82974
0.846609
0.8643
0.882836
0.90223
0.922497
0.943625
0.965583
0.988332
1.01183
1.03602
1.06086
1.08631
1.11232
1.13883
1.16577
1.1931
1.22079
1.24881
1.27712
1.30565
1.33449
1.36408
1.39482
1.42712
1.46139
1.49762
1.53585
1.576
1.61792
1.66138
1.70601
1.7514
1.79704
1.84241
1.88696
1.9302
1.97168
2.01104
2.04801
2.08241
2.11416
2.14325
2.16974
2.19374
2.21539
2.23486
2.25231
2.26788
2.28175
2.29452
2.3067
2.31859
2.33032
2.34193
2.35346
2.36495
2.37644
2.38796
2.39955
2.41123
2.42303
2.43495
2.44701
2.45922
2.47159
2.4841
2.49674
2.5095
2.52236
2.53527
2.54822
2.56115
2.57401
2.58675
2.59931
2.61163
2.62363
2.63526
2.64643
2.6571
2.66721
2.67668
2.68549
2.6936
2.70099
2.70765
2.71357
2.71879
2.72333
2.72724
2.73057
2.73339
2.73576
2.73775
2.73944
2.74089
2.74217
2.74333
2.74443
2.74551
2.7466
2.74776
2.749
2.75036
2.7519
2.75367
2.75563
2.75773
2.76839
-0.0071794
0.00480641
0.00726629
0.0115524
0.0146421
0.0174101
0.0194531
0.0207563
0.0211972
0.0207014
0.0191874
0.016573
0.0127632
0.00764792
0.00109513
-0.00704819
-0.01696
-0.0288397
-0.0429094
-0.0594099
-0.0785996
-0.100752
-0.126153
-0.155095
-0.187874
-0.22478
-0.266096
-0.31208
-0.362966
-0.418946
-0.480159
-0.546676
-0.61848
-0.695453
-0.777346
-0.863766
-0.954144
-1.04771
-1.1435
-1.24031
-1.33669
-1.43099
-1.52131
-1.60557
-1.68155
-1.7469
-1.79924
-1.83622
-1.85559
-1.85528
-1.83345
-1.7886
-1.71939
-1.62459
-1.50382
-1.35748
-1.18684
-0.994124
-0.782592
-0.556583
-0.321587
-0.08428
0.147493
0.36481
0.557918
0.716774
0.832121
0.897418
0.9119
0.884372
0.835057
0.790256
0.768645
0.770393
0.783282
0.798014
0.813581
0.829873
0.8467
0.864254
0.882704
0.902055
0.922301
0.943409
0.965344
0.988069
1.01154
1.03572
1.06055
1.08598
1.11193
1.13837
1.16526
1.19258
1.22026
1.24829
1.2766
1.30513
1.33396
1.36362
1.39444
1.42677
1.46106
1.49729
1.53552
1.57568
1.61761
1.66108
1.70572
1.75112
1.79678
1.84216
1.88673
1.92998
1.97148
2.01085
2.04783
2.08224
2.11399
2.14309
2.16959
2.19359
2.21523
2.23469
2.25214
2.26769
2.28154
2.29431
2.30652
2.31842
2.33016
2.34177
2.3533
2.3648
2.37629
2.38782
2.39941
2.41109
2.42289
2.43482
2.44688
2.4591
2.47147
2.48398
2.49663
2.5094
2.52226
2.53518
2.54813
2.56107
2.57394
2.58668
2.59925
2.61157
2.62358
2.63521
2.6464
2.65707
2.66718
2.67666
2.68548
2.69359
2.70098
2.70764
2.71357
2.71879
2.72333
2.72724
2.73057
2.73339
2.73577
2.73776
2.73945
2.7409
2.74218
2.74334
2.74444
2.74552
2.74662
2.74777
2.74901
2.75036
2.75187
2.75355
2.75526
2.75636
2.76088
-0.00704241
0.0049717
0.007435
0.0117393
0.0148488
0.017645
0.0197238
0.0210715
0.0215655
0.0211321
0.0196903
0.0171591
0.0134453
0.00844072
0.00201627
-0.00597804
-0.0157167
-0.0273953
-0.0412321
-0.0574637
-0.0763449
-0.0981454
-0.123148
-0.151643
-0.183927
-0.220289
-0.261013
-0.306364
-0.35658
-0.411864
-0.472365
-0.538166
-0.609267
-0.685562
-0.766823
-0.852671
-0.942556
-1.03573
-1.13124
-1.22789
-1.32427
-1.41875
-1.50945
-1.59433
-1.67119
-1.73773
-1.7916
-1.83052
-1.85228
-1.85486
-1.83653
-1.79594
-1.73181
-1.64301
-1.52928
-1.39115
-1.22999
-1.04811
-0.848802
-0.636409
-0.416309
-0.194904
0.0204869
0.221858
0.400959
0.550059
0.663182
0.737836
0.776863
0.789143
0.786881
0.779395
0.771174
0.768801
0.779233
0.797233
0.813275
0.828286
0.844994
0.862691
0.881049
0.900099
0.920038
0.94091
0.962683
0.985311
1.00873
1.03287
1.05767
1.08307
1.10904
1.13554
1.16251
1.18989
1.21766
1.24576
1.27418
1.3028
1.33172
1.36151
1.39249
1.42496
1.45938
1.49575
1.5341
1.57438
1.61644
1.66003
1.7048
1.75033
1.7961
1.8416
1.88628
1.92963
1.97121
2.01066
2.04771
2.08217
2.11398
2.14311
2.16964
2.19366
2.21533
2.2348
2.25226
2.26783
2.28168
2.29446
2.3067
2.31861
2.33036
2.34199
2.35353
2.36503
2.37654
2.38807
2.39967
2.41136
2.42316
2.43509
2.44716
2.45938
2.47174
2.48426
2.4969
2.50967
2.52253
2.53545
2.54839
2.56132
2.57418
2.58692
2.59948
2.61179
2.62379
2.63541
2.64659
2.65725
2.66734
2.67681
2.68561
2.69371
2.70109
2.70773
2.71365
2.71886
2.72339
2.72729
2.73062
2.73343
2.7358
2.73779
2.73947
2.74092
2.7422
2.74336
2.74446
2.74554
2.74664
2.7478
2.74904
2.75042
2.75197
2.75379
2.75584
2.75789
2.76295
-0.00680597
0.00521805
0.00768692
0.0120103
0.0151439
0.0179751
0.0200997
0.0215045
0.022067
0.0217136
0.0203641
0.0179386
0.0143462
0.0094812
0.00321791
-0.00458973
-0.0141119
-0.0255394
-0.0390855
-0.0549817
-0.0734779
-0.094839
-0.119344
-0.147279
-0.178939
-0.214613
-0.254586
-0.299127
-0.348483
-0.402863
-0.46243
-0.527284
-0.597441
-0.672818
-0.75321
-0.838261
-0.927447
-1.02005
-1.11514
-1.21157
-1.30795
-1.40269
-1.49397
-1.57978
-1.65798
-1.72633
-1.78255
-1.82441
-1.84979
-1.85674
-1.84362
-1.80925
-1.75245
-1.67211
-1.56808
-1.44098
-1.29221
-1.12405
-0.939681
-0.743196
-0.539551
-0.334474
-0.134273
0.0544778
0.225406
0.373005
0.493444
0.585428
0.650765
0.694183
0.72196
0.739775
0.751418
0.759265
0.767169
0.782689
0.80673
0.829235
0.845485
0.860688
0.877925
0.896721
0.916682
0.937477
0.959026
0.981372
1.00451
1.02841
1.05303
1.07832
1.10424
1.13072
1.15771
1.18515
1.21299
1.24121
1.26976
1.29855
1.32766
1.35766
1.38886
1.42152
1.4561
1.49264
1.53117
1.57165
1.61392
1.65775
1.70278
1.74856
1.7946
1.84035
1.88528
1.92886
1.97065
2.01029
2.04751
2.08212
2.11404
2.14327
2.16988
2.19396
2.21567
2.23518
2.25266
2.26825
2.28213
2.29493
2.30717
2.31911
2.33088
2.34252
2.35408
2.3656
2.37712
2.38867
2.40028
2.41198
2.4238
2.43574
2.44782
2.46005
2.47242
2.48494
2.49759
2.51036
2.52322
2.53613
2.54907
2.562
2.57485
2.58757
2.60011
2.6124
2.62437
2.63596
2.6471
2.65773
2.66778
2.67721
2.68597
2.69403
2.70137
2.70798
2.71386
2.71903
2.72353
2.72741
2.73071
2.7335
2.73585
2.73782
2.7395
2.74094
2.74221
2.74337
2.74446
2.74554
2.74664
2.74779
2.74902
2.75037
2.75187
2.75357
2.75542
2.75731
2.76236
-0.00644372
0.0055261
0.00800963
0.0123481
0.0155093
0.0183798
0.020557
0.0220274
0.0226684
0.0224064
0.0211618
0.0188563
0.015401
0.0106935
0.00461146
-0.00298676
-0.0122666
-0.023414
-0.0366368
-0.0521614
-0.0702323
-0.0911099
-0.115069
-0.142393
-0.173373
-0.208301
-0.247462
-0.29113
-0.339557
-0.392964
-0.451525
-0.515355
-0.58449
-0.658867
-0.738303
-0.822471
-0.910877
-1.00284
-1.09747
-1.19366
-1.2901
-1.38522
-1.47729
-1.56438
-1.64442
-1.71524
-1.77464
-1.82047
-1.85068
-1.86342
-1.85711
-1.83074
-1.78335
-1.71377
-1.62178
-1.50808
-1.37399
-1.22163
-1.05393
-0.874549
-0.687833
-0.498657
-0.312223
-0.133753
0.0318849
0.180628
0.309679
0.41788
0.505864
0.575851
0.631
0.67454
0.709117
0.736117
0.754915
0.765783
0.776629
0.798315
0.829206
0.857164
0.876607
0.892413
0.909465
0.928561
0.949319
0.971411
0.99451
1.01843
1.0431
1.06848
1.09451
1.12113
1.14828
1.17593
1.20402
1.23251
1.26138
1.29052
1.32003
1.35046
1.38208
1.4151
1.45003
1.48692
1.52583
1.56672
1.60944
1.65375
1.69927
1.74557
1.79212
1.83838
1.88377
1.9278
1.97
2.01
2.04753
2.08241
2.11456
2.14399
2.17074
2.19495
2.21676
2.23634
2.25389
2.26954
2.28346
2.2963
2.30858
2.32054
2.33234
2.34401
2.3556
2.36714
2.37868
2.39025
2.40188
2.41359
2.42541
2.43736
2.44944
2.46167
2.47404
2.48655
2.49919
2.51194
2.52477
2.53766
2.55057
2.56345
2.57626
2.58894
2.60142
2.61364
2.62555
2.63707
2.64813
2.65867
2.66864
2.67799
2.68666
2.69464
2.70189
2.70842
2.71423
2.71934
2.72378
2.7276
2.73086
2.73361
2.73593
2.73788
2.73954
2.74097
2.74223
2.74339
2.74448
2.74556
2.74666
2.74782
2.74906
2.75043
2.75197
2.75372
2.75561
2.75753
2.76211
-0.00592703
0.00585774
0.00837822
0.0127237
0.0159183
0.0188323
0.0210686
0.0226116
0.0233389
0.0231769
0.0220469
0.0198723
0.0165666
0.0120308
0.00614668
-0.0012231
-0.0102391
-0.0210818
-0.0339541
-0.0490771
-0.0666904
-0.0870501
-0.110427
-0.137103
-0.167367
-0.201511
-0.239824
-0.282584
-0.330051
-0.382454
-0.43998
-0.502759
-0.570844
-0.644195
-0.722654
-0.805926
-0.893556
-0.984908
-1.07915
-1.17525
-1.27196
-1.36782
-1.46118
-1.55021
-1.63296
-1.70735
-1.7713
-1.82273
-1.85968
-1.8804
-1.88337
-1.86753
-1.83244
-1.77704
-1.70049
-1.60357
-1.48747
-1.35405
-1.20583
-1.04593
-0.878003
-0.706029
-0.534175
-0.366539
-0.20688
-0.0583352
0.0768349
0.197438
0.30341
0.395699
0.475948
0.546014
0.607493
0.661257
0.70694
0.74247
0.764887
0.775037
0.783025
0.802065
0.834296
0.869665
0.898675
0.920679
0.939937
0.959681
0.980933
1.00364
1.02768
1.05284
1.07891
1.10576
1.13327
1.16136
1.18995
1.219
1.24844
1.27819
1.30834
1.33944
1.3717
1.40528
1.44075
1.4782
1.51771
1.55927
1.60272
1.64781
1.69416
1.74131
1.7887
1.83577
1.88195
1.92671
1.96957
2.01016
2.0482
2.08353
2.11605
2.14578
2.17278
2.19718
2.21913
2.23883
2.25646
2.27217
2.28616
2.29904
2.31137
2.32337
2.33521
2.3469
2.35851
2.37008
2.38163
2.39321
2.40485
2.41657
2.42839
2.44033
2.45241
2.46462
2.47697
2.48946
2.50207
2.51478
2.52757
2.54041
2.55325
2.56606
2.57879
2.59137
2.60375
2.61586
2.62764
2.63902
2.64994
2.66034
2.67016
2.67935
2.68787
2.69569
2.7028
2.70919
2.71488
2.71987
2.72421
2.72794
2.73112
2.7338
2.73607
2.73798
2.73961
2.74102
2.74226
2.7434
2.74449
2.74556
2.74666
2.74781
2.74905
2.75041
2.75193
2.75367
2.75555
2.75758
2.76178
-0.00521501
0.00617603
0.00877178
0.0131118
0.016349
0.0193115
0.0216141
0.023236
0.0240562
0.0240009
0.0229928
0.0209574
0.0178112
0.0134589
0.0077864
0.000661165
-0.00807242
-0.0185899
-0.0310892
-0.0457864
-0.0629172
-0.082734
-0.105505
-0.13151
-0.161039
-0.194386
-0.231842
-0.273691
-0.320201
-0.371612
-0.428123
-0.489878
-0.556952
-0.629328
-0.706879
-0.78935
-0.876335
-0.967263
-1.06138
-1.15774
-1.25521
-1.35244
-1.44791
-1.53995
-1.62671
-1.70627
-1.77666
-1.83591
-1.88215
-1.91366
-1.92896
-1.92689
-1.90772
-1.87042
-1.8135
-1.73757
-1.64365
-1.53321
-1.40831
-1.27147
-1.12557
-0.973752
-0.819216
-0.665063
-0.514104
-0.368687
-0.230567
-0.100827
0.0200914
0.132269
0.236107
0.332078
0.420512
0.501436
0.574515
0.639051
0.693833
0.736702
0.764935
0.778446
0.784266
0.795009
0.81907
0.853872
0.890932
0.923933
0.951862
0.977228
1.00229
1.02792
1.05436
1.0816
1.10962
1.13832
1.16762
1.19744
1.22771
1.25833
1.28936
1.32141
1.35467
1.3893
1.42587
1.46452
1.50533
1.54828
1.59319
1.63978
1.68765
1.7363
1.78515
1.83361
1.88109
1.92703
1.97096
2.01249
2.05136
2.08738
2.12048
2.15069
2.17807
2.20277
2.22495
2.24482
2.26257
2.27838
2.29243
2.30535
2.3177
2.32973
2.34157
2.35327
2.36487
2.37641
2.38794
2.39949
2.41109
2.42276
2.43452
2.4464
2.4584
2.47053
2.48279
2.49518
2.50767
2.52026
2.53291
2.54559
2.55827
2.5709
2.58343
2.59579
2.60795
2.61982
2.63134
2.64246
2.65311
2.66323
2.67276
2.68167
2.68992
2.69748
2.70434
2.71049
2.71595
2.72075
2.72491
2.72849
2.73154
2.73413
2.73631
2.73815
2.73973
2.7411
2.74232
2.74344
2.74452
2.74558
2.74668
2.74783
2.74907
2.75044
2.75197
2.7537
2.75557
2.75766
2.76143
-0.0042639
0.00644848
0.00917386
0.0134913
0.016784
0.0198009
0.0221776
0.0238846
0.0248032
0.0248598
0.0239792
0.0220892
0.0191104
0.0149512
0.00950215
0.00263539
-0.00579978
-0.0159742
-0.0280812
-0.042333
-0.0589619
-0.0782178
-0.100367
-0.125691
-0.15448
-0.18703
-0.223639
-0.264598
-0.310183
-0.360645
-0.416199
-0.477008
-0.543168
-0.614694
-0.691499
-0.773379
-0.859992
-0.95085
-1.0453
-1.14251
-1.24149
-1.34104
-1.43981
-1.53627
-1.62878
-1.71556
-1.79477
-1.86458
-1.92318
-1.96891
-2.0003
-2.0161
-2.01591
-2.00044
-1.9684
-1.91835
-1.8514
-1.76858
-1.67139
-1.56167
-1.44153
-1.31325
-1.17913
-1.04142
-0.902156
-0.763093
-0.625648
-0.490885
-0.359551
-0.232158
-0.109105
0.00920855
0.122283
0.22945
0.329865
0.422575
0.506622
0.581138
0.64525
0.697706
0.736782
0.76156
0.774639
0.783766
0.798702
0.824643
0.859484
0.897375
0.933865
0.967838
1.00019
1.03198
1.06373
1.09559
1.1276
1.15978
1.1921
1.22449
1.25702
1.29056
1.32555
1.36213
1.40091
1.44197
1.48537
1.53101
1.57869
1.62805
1.67863
1.72989
1.78122
1.83198
1.88158
1.92944
1.97509
2.01814
2.05831
2.09544
2.12946
2.16042
2.1884
2.21356
2.23609
2.25621
2.27413
2.29004
2.30413
2.31705
2.32937
2.34135
2.35314
2.36477
2.37629
2.38775
2.39918
2.41063
2.42211
2.43366
2.44529
2.45702
2.46887
2.48082
2.4929
2.50507
2.51734
2.52968
2.54207
2.55446
2.56683
2.57912
2.59128
2.60326
2.615
2.62644
2.63752
2.64817
2.65834
2.66798
2.67704
2.68548
2.69326
2.70038
2.70682
2.71258
2.71768
2.72216
2.72604
2.72938
2.73222
2.73463
2.73668
2.73842
2.73991
2.74122
2.7424
2.74349
2.74455
2.7456
2.74669
2.74784
2.74908
2.75045
2.75197
2.7537
2.75557
2.75773
2.76108
-0.00304336
0.00665334
0.00957493
0.0138482
0.0172122
0.0202896
0.0227487
0.0245465
0.0255682
0.0257404
0.0249908
0.0232508
0.020445
0.0164862
0.0112697
0.00467245
-0.00345173
-0.0132695
-0.0249701
-0.0387627
-0.0548774
-0.073563
-0.0950863
-0.119729
-0.147786
-0.179557
-0.215348
-0.255459
-0.300176
-0.349765
-0.40446
-0.464445
-0.529847
-0.600719
-0.677026
-0.758625
-0.845258
-0.936534
-1.03192
-1.13073
-1.23212
-1.33507
-1.43843
-1.54085
-1.64088
-1.73691
-1.82728
-1.91026
-1.98412
-2.04722
-2.09804
-2.13523
-2.15762
-2.16673
-2.16285
-2.14326
-2.10742
-2.05629
-1.99067
-1.91168
-1.82067
-1.71914
-1.60862
-1.49066
-1.36675
-1.23824
-1.10636
-0.972201
-0.836733
-0.700847
-0.565406
-0.431288
-0.29943
-0.170846
-0.046631
0.0720484
0.183992
0.288022
0.383057
0.468198
0.542736
0.606033
0.657383
0.696301
0.723551
0.742557
0.759654
0.781592
0.811687
0.848523
0.88838
0.928388
0.967588
1.00607
1.04403
1.08153
1.11857
1.15498
1.1908
1.22764
1.26668
1.30808
1.35227
1.39913
1.44853
1.50022
1.55382
1.60884
1.66472
1.72083
1.77652
1.83119
1.88423
1.93513
1.98343
2.0288
2.07096
2.10978
2.14521
2.17731
2.2062
2.23206
2.25511
2.2756
2.29375
2.30978
2.3239
2.33674
2.34895
2.3608
2.37244
2.38392
2.39527
2.40654
2.41778
2.42901
2.44027
2.45157
2.46295
2.4744
2.48594
2.49758
2.5093
2.52109
2.53295
2.54485
2.55675
2.56863
2.58044
2.59214
2.60368
2.615
2.62605
2.63677
2.64711
2.657
2.66641
2.67528
2.68357
2.69126
2.69833
2.70475
2.71054
2.71571
2.72027
2.72426
2.72772
2.73069
2.73323
2.73539
2.73723
2.73881
2.74019
2.74141
2.74252
2.74357
2.7446
2.74564
2.74672
2.74786
2.7491
2.75047
2.75199
2.75371
2.75558
2.75779
2.76074
-0.00155836
0.00678288
0.00997145
0.0141771
0.0176284
0.0207717
0.0233207
0.0252136
0.0263416
0.026631
0.0260141
0.0244258
0.0217954
0.0180406
0.0130615
0.00673942
-0.00106752
-0.0105223
-0.021811
-0.0351409
-0.0507408
-0.0688598
-0.0897661
-0.113745
-0.141095
-0.172124
-0.207146
-0.246472
-0.290402
-0.339221
-0.393182
-0.452498
-0.517334
-0.587787
-0.663879
-0.745542
-0.832607
-0.924792
-1.02169
-1.12276
-1.22733
-1.33456
-1.44348
-1.55295
-1.6617
-1.76834
-1.87135
-1.96915
-2.06012
-2.14266
-2.21521
-2.27636
-2.3247
-2.35906
-2.38236
-2.39577
-2.39476
-2.37816
-2.34697
-2.30169
-2.24285
-2.17126
-2.08785
-1.99361
-1.88962
-1.77696
-1.65672
-1.53
-1.39789
-1.26148
-1.12187
-0.980196
-0.837605
-0.695281
-0.554436
-0.416296
-0.282103
-0.153095
-0.0304924
0.084527
0.190862
0.287537
0.373752
0.448899
0.512565
0.564609
0.605529
0.637166
0.663368
0.689584
0.720703
0.758489
0.80125
0.846029
0.890836
0.935016
0.978435
1.02071
1.06162
1.104
1.15034
1.20077
1.25543
1.31378
1.3753
1.43933
1.50508
1.57171
1.63833
1.70407
1.76818
1.83
1.88905
1.94495
1.99742
2.04625
2.0913
2.13252
2.16993
2.20362
2.23376
2.26058
2.28433
2.30529
2.32373
2.33989
2.35398
2.36668
2.37868
2.3903
2.40169
2.41289
2.42394
2.43491
2.44581
2.45669
2.46757
2.47848
2.48942
2.50042
2.51148
2.52258
2.53374
2.54492
2.55612
2.56731
2.57846
2.58952
2.60047
2.61125
2.62181
2.63211
2.6421
2.65173
2.66094
2.6697
2.67796
2.68569
2.69286
2.69945
2.70547
2.7109
2.71576
2.72008
2.72387
2.72717
2.73003
2.7325
2.73461
2.73642
2.73799
2.73935
2.74056
2.74166
2.74269
2.74368
2.74467
2.74568
2.74674
2.74788
2.74912
2.75048
2.75201
2.75372
2.75559
2.75783
2.76044
0.000135011
0.00684378
0.0103637
0.0144803
0.0180326
0.0212453
0.0238897
0.0258798
0.0271147
0.0275209
0.0270351
0.0255969
0.0231404
0.0195881
0.0148448
0.00879595
0.0013035
-0.00779262
-0.0186762
-0.0315533
-0.0466528
-0.0642249
-0.0845406
-0.107889
-0.134576
-0.164917
-0.199235
-0.237855
-0.281094
-0.329253
-0.382611
-0.441413
-0.50586
-0.576099
-0.652211
-0.734201
-0.821986
-0.915388
-1.01412
-1.11778
-1.22583
-1.33761
-1.45232
-1.56902
-1.68662
-1.80391
-1.91958
-2.03222
-2.14033
-2.2424
-2.33688
-2.4223
-2.49723
-2.56021
-2.60968
-2.64808
-2.68103
-2.70259
-2.70707
-2.69677
-2.67189
-2.63271
-2.57957
-2.51305
-2.43381
-2.34267
-2.24057
-2.12851
-2.0076
-1.879
-1.74393
-1.60366
-1.45947
-1.31266
-1.16455
-1.01644
-0.869587
-0.72525
-0.58463
-0.448886
-0.319124
-0.196386
-0.0816443
0.0242195
0.120435
0.206372
0.281576
0.345828
0.399332
0.443125
0.479707
0.513393
0.549406
0.59141
0.639477
0.690888
0.742836
0.793574
0.842472
0.893456
0.950628
1.01458
1.08512
1.16131
1.24215
1.32641
1.41269
1.4995
1.58534
1.6688
1.74865
1.82396
1.89413
1.95892
2.01837
2.07265
2.12196
2.16653
2.20657
2.24231
2.27403
2.30202
2.3266
2.34809
2.36683
2.38308
2.39711
2.40957
2.42124
2.43251
2.44351
2.45428
2.46488
2.47536
2.48575
2.49608
2.50637
2.51665
2.52693
2.53721
2.54749
2.55778
2.56804
2.57828
2.58846
2.59856
2.60854
2.61838
2.62802
2.63743
2.64657
2.65538
2.66384
2.67189
2.67951
2.68666
2.69332
2.69947
2.7051
2.7102
2.7148
2.7189
2.72253
2.72572
2.7285
2.73091
2.733
2.7348
2.73637
2.73774
2.73895
2.74003
2.74104
2.74198
2.7429
2.74382
2.74476
2.74574
2.74678
2.7479
2.74914
2.7505
2.75202
2.75373
2.7556
2.75786
2.76023
0.00193224
0.00685574
0.0107542
0.0147673
0.0184297
0.0217128
0.0244545
0.0265415
0.0278817
0.0284015
0.0280429
0.0267498
0.0244613
0.0211047
0.0165891
0.0108036
0.00361349
-0.00513911
-0.0156363
-0.0280837
-0.0427108
-0.0597697
-0.0795348
-0.1023
-0.128377
-0.158091
-0.191775
-0.229765
-0.272395
-0.319986
-0.37284
-0.431231
-0.495396
-0.565525
-0.641752
-0.724145
-0.812694
-0.907307
-1.00779
-1.11386
-1.2251
-1.34098
-1.46085
-1.58391
-1.70927
-1.83589
-1.96264
-2.08829
-2.21154
-2.331
-2.44525
-2.55281
-2.6522
-2.74192
-2.82051
-2.88636
-2.93809
-2.98291
-3.02345
-3.04983
-3.05918
-3.05306
-3.03164
-2.99515
-2.94396
-2.87865
-2.79989
-2.70854
-2.6056
-2.49216
-2.36943
-2.23872
-2.10137
-1.95877
-1.81234
-1.66347
-1.51354
-1.36388
-1.21578
-1.07043
-0.92895
-0.792373
-0.661619
-0.537502
-0.420725
-0.311876
-0.21142
-0.119702
-0.036936
0.0368097
0.101673
0.158196
0.207783
0.25333
0.299302
0.35011
0.407276
0.468219
0.529236
0.592701
0.66388
0.744637
0.83468
0.933068
1.03854
1.1494
1.26362
1.3789
1.49285
1.60318
1.70785
1.80527
1.89435
1.97458
2.04605
2.1093
2.16515
2.21444
2.2579
2.29611
2.32959
2.35881
2.38418
2.40614
2.42506
2.44129
2.45512
2.4672
2.47839
2.48913
2.49955
2.5097
2.51963
2.52938
2.53899
2.54849
2.55791
2.56725
2.57652
2.58572
2.59486
2.60391
2.61287
2.62171
2.63041
2.63894
2.64726
2.65536
2.66318
2.67069
2.67786
2.68466
2.69105
2.69702
2.70253
2.70758
2.71217
2.71629
2.71996
2.7232
2.72603
2.72848
2.73059
2.73241
2.73396
2.73531
2.73647
2.7375
2.73842
2.73926
2.74006
2.74082
2.74158
2.74235
2.74314
2.74397
2.74485
2.74579
2.74681
2.74793
2.74915
2.75051
2.75203
2.75373
2.7556
2.75787
2.76011
0.00370447
0.00684888
0.0111473
0.015053
0.0188282
0.0221803
0.0250179
0.0271991
0.0286411
0.02927
0.0290329
0.0278779
0.025749
0.0225778
0.0182773
0.0127399
0.00583363
-0.0025975
-0.0127343
-0.0247825
-0.0389719
-0.0555569
-0.0748146
-0.0970437
-0.122561
-0.1517
-0.184803
-0.222216
-0.264288
-0.311355
-0.363739
-0.421738
-0.485619
-0.555604
-0.63187
-0.71453
-0.803631
-0.899141
-1.00094
-1.10882
-1.22244
-1.34139
-1.46511
-1.59294
-1.72408
-1.85764
-1.99266
-2.12804
-2.26266
-2.39528
-2.52461
-2.6493
-2.76792
-2.87902
-2.9811
-3.07265
-3.15183
-3.21635
-3.26778
-3.31485
-3.35525
-3.37961
-3.38732
-3.37924
-3.35561
-3.31671
-3.263
-3.19509
-3.11376
-3.01993
-2.91466
-2.79913
-2.67463
-2.54255
-2.40432
-2.26141
-2.11531
-1.96748
-1.81936
-1.6723
-1.52758
-1.38634
-1.2496
-1.11822
-0.992894
-0.874124
-0.762215
-0.657285
-0.559261
-0.467908
-0.382848
-0.303586
-0.229534
-0.159987
-0.0939903
-0.0299608
0.0346202
0.102136
0.173191
0.24995
0.336598
0.434938
0.544254
0.663988
0.793128
0.930075
1.07267
1.21825
1.36378
1.50602
1.64184
1.76849
1.88393
1.98695
2.07718
2.15501
2.22144
2.27791
2.32601
2.36713
2.40239
2.43262
2.4585
2.48059
2.49939
2.5153
2.5287
2.54018
2.55065
2.56062
2.57019
2.57941
2.58835
2.59705
2.60553
2.61382
2.62195
2.62991
2.63772
2.64538
2.65286
2.66018
2.66729
2.6742
2.68086
2.68726
2.69336
2.69915
2.70458
2.70965
2.71431
2.71856
2.72239
2.72577
2.72873
2.73125
2.73337
2.73511
2.73649
2.73756
2.73837
2.73895
2.73936
2.73965
2.73986
2.74002
2.74019
2.74037
2.7406
2.74088
2.74123
2.74166
2.74216
2.74274
2.7434
2.74413
2.74495
2.74585
2.74685
2.74794
2.74916
2.75051
2.75203
2.75373
2.7556
2.75787
2.76011
0.00533294
0.00685961
0.0115486
0.0153548
0.0192384
0.0226561
0.0255855
0.0278567
0.0293962
0.0301294
0.0300081
0.0289843
0.0270062
0.0240095
0.0199106
0.0146049
0.00796286
-0.000169679
-0.0099723
-0.0216504
-0.0354341
-0.0515791
-0.0703646
-0.0920926
-0.117084
-0.145678
-0.178223
-0.215075
-0.256591
-0.30312
-0.354999
-0.412542
-0.476036
-0.545729
-0.621822
-0.704463
-0.793734
-0.889644
-0.992118
-1.10099
-1.21601
-1.33678
-1.46284
-1.59358
-1.72827
-1.86611
-2.00617
-2.1475
-2.28903
-2.42965
-2.56817
-2.70336
-2.83393
-2.95854
-3.07581
-3.18433
-3.28265
-3.3693
-3.44247
-3.49915
-3.54351
-3.58408
-3.61456
-3.628
-3.62583
-3.60839
-3.57591
-3.52878
-3.46751
-3.39276
-3.30531
-3.20609
-3.09616
-2.97669
-2.849
-2.71448
-2.57461
-2.43093
-2.285
-2.1384
-1.99265
-1.84922
-1.70946
-1.57459
-1.44561
-1.32329
-1.20802
-1.09982
-0.998211
-0.902293
-0.810884
-0.722706
-0.636533
-0.551286
-0.466105
-0.380407
-0.293943
-0.207031
-0.120263
-0.0309867
0.067561
0.179138
0.302575
0.437012
0.581704
0.73551
0.896739
1.06315
1.23194
1.39982
1.56317
1.71825
1.86168
1.99087
2.10435
2.20185
2.28403
2.35219
2.40805
2.45366
2.49109
2.52209
2.54796
2.56963
2.58777
2.60293
2.61553
2.62613
2.6356
2.64447
2.65286
2.6608
2.66836
2.67557
2.68247
2.68909
2.69543
2.70151
2.70734
2.7129
2.7182
2.72322
2.72795
2.73237
2.73646
2.74021
2.74358
2.74658
2.74916
2.75133
2.75308
2.7544
2.75531
2.7558
2.7559
2.75566
2.75509
2.75426
2.75321
2.752
2.7507
2.74935
2.74803
2.74677
2.74562
2.74462
2.74379
2.74314
2.74269
2.74243
2.74236
2.74245
2.74271
2.74311
2.74363
2.74428
2.74504
2.7459
2.74687
2.74796
2.74916
2.75051
2.75203
2.75373
2.7556
2.75786
2.76023
0.00673691
0.00692406
0.0119637
0.0156874
0.0196686
0.023147
0.0261617
0.0285182
0.0301509
0.0309845
0.0309746
0.0300764
0.0282421
0.0254108
0.021502
0.0164141
0.01002
0.00216749
-0.00732138
-0.018651
-0.0320512
-0.0477776
-0.0661102
-0.0873526
-0.111828
-0.139879
-0.171858
-0.208126
-0.249046
-0.294975
-0.346258
-0.403221
-0.466164
-0.535348
-0.610994
-0.693268
-0.782274
-0.878047
-0.980541
-1.08962
-1.20507
-1.32654
-1.45358
-1.58563
-1.72197
-1.86181
-2.00425
-2.14835
-2.29309
-2.4374
-2.58012
-2.72006
-2.85599
-2.98665
-3.11074
-3.22699
-3.33414
-3.43098
-3.51635
-3.58892
-3.64723
-3.68913
-3.72128
-3.74611
-3.75673
-3.75235
-3.73359
-3.70065
-3.6538
-3.59346
-3.52011
-3.43437
-3.33699
-3.22881
-3.11084
-2.9842
-2.85019
-2.71022
-2.56589
-2.41888
-2.27103
-2.12423
-1.9804
-1.84136
-1.7088
-1.58407
-1.46796
-1.36042
-1.26023
-1.16507
-1.07239
-0.980218
-0.887385
-0.793192
-0.697158
-0.598981
-0.498643
-0.396669
-0.293989
-0.189813
-0.0799308
0.0392433
0.168353
0.30751
0.456587
0.615049
0.78189
0.955556
1.13392
1.31428
1.49335
1.66739
1.8324
1.98456
2.12083
2.23943
2.34007
2.42366
2.49175
2.54608
2.58861
2.62167
2.64766
2.66848
2.68539
2.69924
2.7106
2.71992
2.72801
2.7354
2.74216
2.74837
2.75408
2.75933
2.76417
2.76861
2.77267
2.77638
2.77973
2.78273
2.78538
2.78768
2.7896
2.79115
2.79232
2.79308
2.79344
2.79338
2.79289
2.79198
2.79065
2.78892
2.78681
2.78435
2.78158
2.77856
2.77534
2.772
2.76859
2.76521
2.7619
2.75875
2.75581
2.75313
2.75075
2.74869
2.74696
2.74558
2.74453
2.74379
2.74333
2.74314
2.74318
2.74342
2.74384
2.74441
2.74512
2.74595
2.74689
2.74796
2.74916
2.7505
2.75202
2.75373
2.75559
2.75784
2.76044
0.00788459
0.00706967
0.0123961
0.0160584
0.0201211
0.0236539
0.0267459
0.0291826
0.0309047
0.0318356
0.0319343
0.0311583
0.0294629
0.0267904
0.0230634
0.0181832
0.0120254
0.00444032
-0.00474776
-0.0157414
-0.0287687
-0.0440841
-0.061967
-0.0827206
-0.106669
-0.134154
-0.165531
-0.201163
-0.241416
-0.28665
-0.337216
-0.393446
-0.455645
-0.524086
-0.598999
-0.680562
-0.768893
-0.864043
-0.965985
-1.07461
-1.18971
-1.31097
-1.43798
-1.57017
-1.7068
-1.84706
-1.99003
-2.13479
-2.28031
-2.42557
-2.56939
-2.71053
-2.84785
-2.98007
-3.10592
-3.22414
-3.33356
-3.43316
-3.52188
-3.59879
-3.66313
-3.71381
-3.74937
-3.77312
-3.78725
-3.78851
-3.77605
-3.75026
-3.71136
-3.65968
-3.59544
-3.51901
-3.43078
-3.33124
-3.22096
-3.10058
-2.97087
-2.83274
-2.68724
-2.53569
-2.37976
-2.22154
-2.06367
-1.90937
-1.76249
-1.62724
-1.50756
-1.40572
-1.32076
-1.24819
-1.18161
-1.11508
-1.04445
-0.967159
-0.881794
-0.787864
-0.685824
-0.577011
-0.462871
-0.343352
-0.218186
-0.0867155
0.0526223
0.200194
0.35625
0.520712
0.693086
0.872405
1.05715
1.2452
1.43386
1.61982
1.79934
1.96846
2.12345
2.2614
2.38065
2.48097
2.56339
2.62971
2.68177
2.72121
2.74998
2.77079
2.78629
2.79827
2.80774
2.81517
2.82123
2.82649
2.83101
2.83488
2.83816
2.84092
2.84319
2.84501
2.8464
2.84738
2.84797
2.84816
2.84797
2.84739
2.84642
2.84504
2.84326
2.84106
2.83844
2.8354
2.83195
2.82809
2.82384
2.81924
2.81431
2.80912
2.80372
2.79818
2.79257
2.78699
2.78151
2.77622
2.77119
2.7665
2.76219
2.75831
2.7549
2.75197
2.74952
2.74754
2.746
2.74487
2.74411
2.74369
2.74356
2.74368
2.744
2.74451
2.74518
2.74598
2.74691
2.74797
2.74916
2.75049
2.75201
2.75372
2.75559
2.75779
2.76074
0.00878671
0.00730746
0.012844
0.0164655
0.0205905
0.0241703
0.0273303
0.0298416
0.031649
0.032675
0.0328801
0.0322238
0.0306639
0.0281454
0.024594
0.0199139
0.0139843
0.0066582
-0.0022368
-0.0129003
-0.0255577
-0.0404609
-0.0578869
-0.0781368
-0.101533
-0.128417
-0.159141
-0.19407
-0.233569
-0.278001
-0.327716
-0.38305
-0.444312
-0.511781
-0.585692
-0.666233
-0.753529
-0.847644
-0.948564
-1.0562
-1.17036
-1.29077
-1.41702
-1.54856
-1.68462
-1.82431
-1.96669
-2.1109
-2.25587
-2.40068
-2.54412
-2.68491
-2.82204
-2.95414
-3.07997
-3.19819
-3.30748
-3.40697
-3.49582
-3.5731
-3.63811
-3.69025
-3.72896
-3.75348
-3.76621
-3.76816
-3.75755
-3.73471
-3.70009
-3.65362
-3.59531
-3.52551
-3.44453
-3.35262
-3.25006
-3.1371
-3.01408
-2.88176
-2.74058
-2.59126
-2.43491
-2.27318
-2.10853
-1.94449
-1.7864
-1.64202
-1.52135
-1.43319
-1.37779
-1.34407
-1.31677
-1.28504
-1.24412
-1.1919
-1.12669
-1.04692
-0.951641
-0.84181
-0.719976
-0.587031
-0.445052
-0.295171
-0.135935
0.0322485
0.208672
0.392415
0.582307
0.777107
0.975404
1.17556
1.37553
1.57272
1.76401
1.94588
2.11477
2.26762
2.40238
2.51819
2.61526
2.6945
2.75752
2.80629
2.84239
2.86704
2.88256
2.89242
2.89924
2.90388
2.9071
2.90946
2.91103
2.91195
2.91229
2.91215
2.91157
2.91058
2.90923
2.90752
2.90547
2.90306
2.9003
2.89716
2.89365
2.88974
2.88542
2.88069
2.87552
2.86994
2.86394
2.85755
2.8508
2.84374
2.83642
2.8289
2.82128
2.81364
2.80606
2.79864
2.79149
2.78467
2.77827
2.77237
2.767
2.7622
2.75801
2.75442
2.75142
2.74898
2.74708
2.74566
2.74469
2.74409
2.74383
2.74386
2.74412
2.74458
2.74522
2.746
2.74691
2.74796
2.74915
2.75048
2.75199
2.75371
2.75558
2.75773
2.76108
0.00947974
0.00762809
0.0132986
0.0168961
0.0210638
0.0246824
0.0279003
0.0304799
0.032368
0.0334859
0.0337949
0.0332555
0.0318272
0.0294578
0.0260758
0.0215887
0.0158792
0.0088044
0.000195511
-0.010143
-0.0224326
-0.0369212
-0.0538821
-0.0736126
-0.0964321
-0.122678
-0.152701
-0.186862
-0.225526
-0.269052
-0.317793
-0.372083
-0.432234
-0.498527
-0.571202
-0.650451
-0.736409
-0.829146
-0.928663
-1.03489
-1.14766
-1.26671
-1.3917
-1.52207
-1.65701
-1.79552
-1.93665
-2.07968
-2.22353
-2.36762
-2.51015
-2.6497
-2.78603
-2.9175
-3.04274
-3.16044
-3.26935
-3.36841
-3.45673
-3.53353
-3.59818
-3.65023
-3.68934
-3.71528
-3.7284
-3.72997
-3.72031
-3.69917
-3.6668
-3.62342
-3.56955
-3.50569
-3.43233
-3.34994
-3.25891
-3.15948
-3.05354
-2.94129
-2.82118
-2.69352
-2.55912
-2.41911
-2.27508
-2.1293
-1.98566
-1.85048
-1.73411
-1.65144
-1.61351
-1.61318
-1.6281
-1.63755
-1.63046
-1.60265
-1.55257
-1.47936
-1.38162
-1.25844
-1.11312
-0.950282
-0.775982
-0.589495
-0.391513
-0.183871
0.0302686
0.248395
0.467887
0.686938
0.904153
1.11861
1.32937
1.53519
1.73418
1.92379
2.10105
2.26309
2.40779
2.5342
2.6425
2.73335
2.80745
2.86573
2.9098
2.94155
2.9618
2.97185
2.97576
2.97681
2.97641
2.97528
2.97347
2.97117
2.9685
2.96555
2.96238
2.95901
2.95545
2.95169
2.94771
2.94346
2.93892
2.93404
2.92879
2.92313
2.91703
2.91048
2.90346
2.89598
2.88806
2.87972
2.87103
2.86205
2.85285
2.84353
2.83419