/*--------------------------------*- C++ -*----------------------------------*\
| =========                 |                                                 |
| \\      /  F ield         | OpenFOAM: The Open Source CFD Toolbox           |
|  \\    /   O peration     | Version:  2406                                  |
|   \\  /    A nd           | Website:  www.openfoam.com                      |
|    \\/     M anipulation  |                                                 |
\*---------------------------------------------------------------------------*/
FoamFile
{
    version     2.0;
    format      ascii;
    arch        "LSB;label=32;scalar=64";
    class       surfaceScalarField;
    location    "600";
    object      phi;
}
// * * * * * * * * * * * * * * * * * * * * * * * * * * * * * * * * * * * * * //

dimensions      [0 3 -1 0 0 0 0];

oriented        oriented;

internalField   nonuniform List<scalar> 
10988
(
-7.99998e-05
6.30891e-07
-8.10032e-05
1.00344e-06
-8.19802e-05
9.76999e-07
-8.29449e-05
9.647e-07
-8.38978e-05
9.52872e-07
-8.48509e-05
9.53149e-07
-8.58136e-05
9.62709e-07
-8.67938e-05
9.80173e-07
-8.77973e-05
1.00344e-06
-8.88284e-05
1.03116e-06
-8.9891e-05
1.0626e-06
-9.09887e-05
1.09772e-06
-9.21257e-05
1.13696e-06
-9.33067e-05
1.18101e-06
-9.45374e-05
1.23068e-06
-9.58242e-05
1.28678e-06
-9.71741e-05
1.34996e-06
-9.85948e-05
1.42069e-06
-0.000100094
1.49919e-06
-0.000101679
1.58539e-06
-0.000103358
1.67888e-06
-0.000105137
1.77894e-06
-0.000107022
1.88448e-06
-0.000109016
1.99403e-06
-0.000111121
2.10575e-06
-0.000113339
2.21751e-06
-0.000115666
2.32689e-06
-0.000118097
2.43131e-06
-0.000120625
2.52812e-06
-0.00012324
2.61472e-06
-0.000125929
2.68872e-06
-0.000128677
2.748e-06
-0.000131467
2.79089e-06
-0.000134284
2.81619e-06
-0.000137107
2.82312e-06
-0.000139918
2.81133e-06
-0.000142699
2.78067e-06
-0.00014543
2.73105e-06
-0.000148092
2.66231e-06
-0.000150666
2.57404e-06
-0.000153132
2.46549e-06
-0.000155467
2.3356e-06
-0.00015765
2.18307e-06
-0.000159657
2.00653e-06
-0.000161461
1.80464e-06
-0.000163038
1.57633e-06
-0.000164359
1.32091e-06
-0.000165397
1.03821e-06
-0.000166126
7.28665e-07
-0.000166519
3.93301e-07
-0.000166552
3.32524e-08
-0.000166193
-3.58581e-07
-0.000165403
-7.90871e-07
-0.00016414
-1.2631e-06
-0.000162368
-1.77153e-06
-0.000160054
-2.31361e-06
-0.000157167
-2.88722e-06
-0.000153677
-3.49003e-06
-0.000149558
-4.11945e-06
-0.000144785
-4.77229e-06
-0.000139341
-5.44436e-06
-0.000133211
-6.12962e-06
-0.000126393
-6.81878e-06
-0.000118896
-7.497e-06
-0.000110756
-8.13952e-06
-0.000102052
-8.70358e-06
-9.29376e-05
-9.11472e-06
-8.3692e-05
-9.24557e-06
-7.48002e-05
-8.89171e-06
-6.70233e-05
-7.77696e-06
-6.13309e-05
-5.69241e-06
-5.8432e-05
-2.89889e-06
-5.80115e-05
-4.20469e-07
-5.87652e-05
7.53676e-07
-5.96279e-05
8.6272e-07
-6.03352e-05
7.07392e-07
-6.09308e-05
5.95651e-07
-6.14553e-05
5.24439e-07
-6.19237e-05
4.684e-07
-6.23424e-05
4.18603e-07
-6.27144e-05
3.71939e-07
-6.30418e-05
3.27435e-07
-6.33261e-05
2.844e-07
-6.3569e-05
2.42921e-07
-6.37723e-05
2.03278e-07
-6.39378e-05
1.65564e-07
-6.40677e-05
1.29817e-07
-6.41637e-05
9.60011e-08
-6.42277e-05
6.39974e-08
-6.42614e-05
3.36451e-08
-6.42661e-05
4.78242e-09
-6.42429e-05
-2.32799e-08
-6.41916e-05
-5.13089e-08
-6.41125e-05
-7.90742e-08
-6.40064e-05
-1.061e-07
-6.38741e-05
-1.32301e-07
-6.37164e-05
-1.57721e-07
-6.3534e-05
-1.82447e-07
-6.33272e-05
-2.06716e-07
-6.30961e-05
-2.31055e-07
-6.2815e-05
-2.81143e-07
-6.24785e-05
-3.36422e-07
-6.20812e-05
-3.97263e-07
-6.16181e-05
-4.63087e-07
-6.10851e-05
-5.32907e-07
-6.04799e-05
-6.05143e-07
-5.98023e-05
-6.77669e-07
-5.90544e-05
-7.47895e-07
-5.82415e-05
-8.12954e-07
-5.73715e-05
-8.69955e-07
-5.64552e-05
-9.16271e-07
-5.55054e-05
-9.49817e-07
-5.4536e-05
-9.6926e-07
-5.35618e-05
-9.74132e-07
-5.25969e-05
-9.64835e-07
-5.16543e-05
-9.42543e-07
-5.07452e-05
-9.09038e-07
-4.98787e-05
-8.66497e-07
-4.90614e-05
-8.17257e-07
-4.82978e-05
-7.6361e-07
-4.75902e-05
-7.07635e-07
-4.69391e-05
-6.51095e-07
-4.63437e-05
-5.95403e-07
-4.58021e-05
-5.41631e-07
-4.53115e-05
-4.90536e-07
-4.48689e-05
-4.42575e-07
-4.44708e-05
-3.98049e-07
-4.41135e-05
-3.57297e-07
-4.37586e-05
-3.55028e-07
-4.34047e-05
-3.53932e-07
-4.30504e-05
-3.54289e-07
-4.26944e-05
-3.56075e-07
-4.23352e-05
-3.59271e-07
-4.19713e-05
-3.63825e-07
-4.16017e-05
-3.69676e-07
-4.12249e-05
-3.76755e-07
-4.08399e-05
-3.8498e-07
-4.04456e-05
-3.94261e-07
-4.00411e-05
-4.04495e-07
-3.96255e-05
-4.15562e-07
-3.91981e-05
-4.27329e-07
-3.87585e-05
-4.39638e-07
-3.83062e-05
-4.5231e-07
-3.7841e-05
-4.65144e-07
-3.73631e-05
-4.77909e-07
-3.68727e-05
-4.90352e-07
-3.63705e-05
-5.02191e-07
-3.58573e-05
-5.13119e-07
-3.53345e-05
-5.22804e-07
-3.48035e-05
-5.3089e-07
-3.42665e-05
-5.37007e-07
-3.37256e-05
-5.4077e-07
-3.31838e-05
-5.41793e-07
-3.26441e-05
-5.39698e-07
-3.211e-05
-5.34132e-07
-3.15852e-05
-5.24785e-07
-3.10738e-05
-5.11412e-07
-3.058e-05
-4.93854e-07
-3.01079e-05
-4.72059e-07
-2.96617e-05
-4.46096e-07
-2.92455e-05
-4.16169e-07
-2.88629e-05
-3.82621e-07
-2.8517e-05
-3.45928e-07
-2.82104e-05
-3.06693e-07
-2.79448e-05
-2.65617e-07
-2.77214e-05
-2.23465e-07
-2.75404e-05
-1.81016e-07
-2.74014e-05
-1.39001e-07
-2.73034e-05
-9.80323e-08
-2.72449e-05
-5.85383e-08
-2.72243e-05
-2.06555e-08
-2.72388e-05
1.45565e-08
-2.72845e-05
4.56797e-08
-2.73587e-05
7.41736e-08
-2.74612e-05
1.02561e-07
-2.75939e-05
1.3266e-07
-2.77611e-05
1.67276e-07
-2.79719e-05
2.108e-07
-2.82419e-05
2.70026e-07
-2.8597e-05
3.55034e-07
-2.90766e-05
4.79673e-07
-2.97374e-05
6.60835e-07
-3.06538e-05
9.16393e-07
-3.19162e-05
1.26238e-06
-3.36136e-05
1.6974e-06
-3.58577e-05
2.24409e-06
4.14231e-06
-0.000116872
1.31244e-06
-0.000117979
2.11016e-06
-0.00011902
2.01833e-06
-0.00012005
1.99469e-06
-0.000121064
1.96672e-06
-0.000122084
1.97295e-06
-0.000123124
2.0027e-06
-0.000124197
2.05301e-06
-0.000125311
2.11789e-06
-0.000126474
2.19363e-06
-0.000127689
2.27806e-06
-0.000128962
2.37075e-06
-0.000130298
2.47252e-06
-0.000131702
2.58493e-06
-0.000133181
2.70988e-06
-0.000134743
2.84924e-06
-0.000136398
3.00462e-06
-0.000138155
3.1772e-06
-0.000140023
3.36755e-06
-0.000142013
3.57566e-06
-0.000144135
3.80079e-06
-0.000146398
4.04145e-06
-0.000148808
4.29535e-06
-0.000151374
4.55939e-06
-0.000154098
4.82969e-06
-0.000156982
5.10167e-06
-0.000160025
5.37012e-06
-0.000163223
5.62942e-06
-0.000166569
5.87366e-06
-0.000170051
6.09692e-06
-0.000173656
6.29348e-06
-0.000177366
6.45805e-06
-0.000181161
6.58594e-06
-0.000185018
6.67327e-06
-0.000188911
6.71687e-06
-0.000192814
6.71436e-06
-0.000196698
6.66395e-06
-0.000200531
6.56427e-06
-0.000204283
6.4141e-06
-0.000207921
6.21225e-06
-0.000211413
5.95736e-06
-0.000214725
5.64782e-06
-0.000217824
5.28186e-06
-0.000220675
4.85767e-06
-0.000223244
4.3736e-06
-0.000225496
3.82834e-06
-0.000227396
3.22118e-06
-0.00022891
2.55215e-06
-0.000230003
1.82205e-06
-0.000230642
1.03229e-06
-0.000230793
1.83926e-07
-0.000230425
-7.26721e-07
-0.000229507
-1.70905e-06
-0.000228001
-2.76886e-06
-0.00022587
-3.9027e-06
-0.000223078
-5.10505e-06
-0.000219595
-6.37069e-06
-0.000215391
-7.69385e-06
-0.000210443
-9.0678e-06
-0.000204731
-1.04843e-05
-0.000198242
-1.19325e-05
-0.000190975
-1.33975e-05
-0.000182936
-1.48574e-05
-0.000174154
-1.62792e-05
-0.000164682
-1.76112e-05
-0.000154614
-1.87716e-05
-0.000144099
-1.96301e-05
-0.00013336
-1.99839e-05
-0.000122716
-1.95365e-05
-0.000112579
-1.79131e-05
-0.000103477
-1.47948e-05
-9.61169e-05
-1.0259e-05
-9.13437e-05
-5.19366e-06
-8.94415e-05
-1.14853e-06
-8.94675e-05
8.88631e-07
-9.01221e-05
1.36193e-06
-9.0795e-05
1.26841e-06
-9.13931e-05
1.12258e-06
-9.192e-05
9.9537e-07
-9.23814e-05
8.80016e-07
-9.27774e-05
7.67892e-07
-9.31101e-05
6.59993e-07
-9.33826e-05
5.56724e-07
-9.35983e-05
4.58557e-07
-9.37607e-05
3.65618e-07
-9.38728e-05
2.77591e-07
-9.39374e-05
1.94318e-07
-9.3957e-05
1.15628e-07
-9.39343e-05
4.12336e-08
-9.38714e-05
-2.932e-08
-9.37699e-05
-9.67398e-08
-9.36318e-05
-1.61381e-07
-9.34599e-05
-2.23225e-07
-9.32565e-05
-2.82457e-07
-9.30232e-05
-3.39352e-07
-9.27613e-05
-3.94235e-07
-9.24715e-05
-4.47464e-07
-9.21546e-05
-4.99394e-07
-9.18109e-05
-5.50422e-07
-9.1441e-05
-6.00912e-07
-9.1004e-05
-7.18237e-07
-9.04914e-05
-8.49016e-07
-8.9896e-05
-9.92701e-07
-8.92114e-05
-1.14771e-06
-8.84329e-05
-1.31136e-06
-8.75583e-05
-1.4798e-06
-8.65879e-05
-1.64798e-06
-8.55258e-05
-1.80991e-06
-8.43796e-05
-1.95899e-06
-8.31608e-05
-2.08866e-06
-8.1884e-05
-2.19297e-06
-8.05665e-05
-2.26723e-06
-7.92273e-05
-2.30848e-06
-7.78858e-05
-2.31574e-06
-7.65606e-05
-2.29003e-06
-7.5269e-05
-2.23418e-06
-7.40258e-05
-2.15236e-06
-7.28426e-05
-2.04964e-06
-7.17285e-05
-1.93143e-06
-7.0689e-05
-1.80304e-06
-6.97274e-05
-1.66928e-06
-6.88442e-05
-1.53428e-06
-6.80383e-05
-1.40134e-06
-6.73069e-05
-1.27299e-06
-6.66465e-05
-1.15098e-06
-6.60527e-05
-1.03644e-06
-6.55207e-05
-9.30054e-07
-6.50459e-05
-8.3207e-07
-6.45763e-05
-8.24592e-07
-6.41093e-05
-8.20918e-07
-6.36426e-05
-8.20958e-07
-6.31741e-05
-8.24575e-07
-6.27017e-05
-8.31618e-07
-6.22236e-05
-8.41926e-07
-6.17379e-05
-8.5533e-07
-6.1243e-05
-8.71643e-07
-6.07373e-05
-8.90662e-07
-6.02194e-05
-9.12161e-07
-5.96881e-05
-9.35885e-07
-5.91421e-05
-9.61546e-07
-5.85806e-05
-9.88814e-07
-5.80029e-05
-1.01732e-06
-5.74086e-05
-1.04663e-06
-5.67975e-05
-1.07628e-06
-5.61696e-05
-1.10572e-06
-5.55255e-05
-1.13436e-06
-5.48661e-05
-1.16155e-06
-5.41926e-05
-1.18656e-06
-5.35067e-05
-1.20862e-06
-5.28106e-05
-1.2269e-06
-5.2107e-05
-1.24054e-06
-5.13992e-05
-1.24863e-06
-5.06907e-05
-1.25027e-06
-4.99858e-05
-1.24459e-06
-4.92892e-05
-1.23077e-06
-4.86059e-05
-1.2081e-06
-4.79412e-05
-1.17601e-06
-4.73009e-05
-1.13413e-06
-4.66905e-05
-1.08234e-06
-4.61158e-05
-1.02076e-06
-4.55822e-05
-9.49839e-07
-4.50945e-05
-8.70334e-07
-4.46572e-05
-7.8331e-07
-4.42739e-05
-6.9012e-07
-4.39472e-05
-5.92342e-07
-4.36791e-05
-4.91694e-07
-4.34703e-05
-3.89912e-07
-4.33207e-05
-2.88608e-07
-4.32297e-05
-1.89109e-07
-4.31959e-05
-9.23244e-08
-4.3218e-05
1.41067e-09
-4.32916e-05
8.81452e-08
-4.34136e-05
1.67678e-07
-4.35851e-05
2.45724e-07
-4.38078e-05
3.25315e-07
-4.40855e-05
4.10405e-07
-4.44244e-05
5.06175e-07
-4.48331e-05
6.19494e-07
-4.53223e-05
7.59258e-07
-4.59037e-05
9.36469e-07
-4.65877e-05
1.16366e-06
-4.738e-05
1.4532e-06
-4.82786e-05
1.815e-06
-4.927e-05
2.25374e-06
-5.03162e-05
2.74359e-06
-5.13566e-05
3.28455e-06
5.21917e-06
-0.000157474
2.09177e-06
-0.00015874
3.37602e-06
-0.000159912
3.18992e-06
-0.000161076
3.15907e-06
-0.000162225
3.11549e-06
-0.000163389
3.13669e-06
-0.000164586
3.20005e-06
-0.000165834
3.30068e-06
-0.000167143
3.42704e-06
-0.000168521
3.57214e-06
-0.000169975
3.73167e-06
-0.000171509
3.90462e-06
-0.000173129
4.0922e-06
-0.000174841
4.29712e-06
-0.000176654
4.52266e-06
-0.000178577
4.77216e-06
-0.00018062
5.04845e-06
-0.000182797
5.35368e-06
-0.000185118
5.689e-06
-0.000187597
6.05453e-06
-0.000190246
6.44919e-06
-0.000193075
6.87068e-06
-0.000196095
7.31535e-06
-0.000199314
7.77827e-06
-0.000202737
8.25318e-06
-0.000206368
8.7327e-06
-0.000210206
9.20837e-06
-0.000214248
9.67099e-06
-0.000218485
1.01108e-05
-0.000222906
1.05179e-05
-0.000227495
1.08824e-05
-0.000232232
1.11949e-05
-0.000237092
1.14468e-05
-0.00024205
1.16304e-05
-0.000247072
1.1739e-05
-0.000252124
1.1767e-05
-0.00025717
1.17101e-05
-0.00026217
1.15643e-05
-0.000267083
1.13268e-05
-0.000271866
1.09948e-05
-0.000276474
1.0566e-05
-0.000280864
1.00381e-05
-0.000284992
9.40892e-06
-0.00028881
8.67647e-06
-0.000292276
7.83914e-06
-0.000295343
6.89592e-06
-0.000297969
5.84667e-06
-0.000300109
4.69232e-06
-0.000301722
3.43492e-06
-0.000302767
2.07736e-06
-0.000303206
6.22594e-07
-0.000303005
-9.27818e-07
-0.000302133
-2.58086e-06
-0.000300553
-4.34896e-06
-0.000298224
-6.23144e-06
-0.00029511
-8.2194e-06
-0.000291177
-1.03031e-05
-0.0002864
-1.24715e-05
-0.000280756
-1.47114e-05
-0.000274234
-1.70066e-05
-0.00026683
-1.93363e-05
-0.000258555
-2.16724e-05
-0.000249436
-2.39764e-05
-0.000239522
-2.61927e-05
-0.000228892
-2.82412e-05
-0.000217659
-3.0005e-05
-0.000205973
-3.13162e-05
-0.000194014
-3.19422e-05
-0.000181968
-3.15832e-05
-0.000169979
-2.99021e-05
-0.000158155
-2.66183e-05
-0.00014674
-2.16742e-05
-0.000136504
-1.54299e-05
-0.000128837
-8.81549e-06
-0.000124694
-3.25434e-06
-0.000123477
1.45474e-07
-0.000123691
1.4823e-06
-0.000124254
1.68523e-06
-0.000124791
1.53249e-06
-0.000125245
1.33348e-06
-0.000125627
1.14964e-06
-0.000125946
9.79719e-07
-0.000126202
8.12195e-07
-0.000126391
6.48152e-07
-0.000126517
4.9115e-07
-0.000126582
3.42436e-07
-0.00012659
2.02406e-07
-0.000126545
7.08109e-08
-0.000126451
-5.3086e-08
-0.00012631
-1.70187e-07
-0.000126126
-2.81059e-07
-0.000125901
-3.86112e-07
-0.000125638
-4.85919e-07
-0.00012534
-5.81188e-07
-0.000125006
-6.72678e-07
-0.000124639
-7.61104e-07
-0.00012424
-8.47129e-07
-0.000123808
-9.3135e-07
-0.000123344
-1.01429e-06
-0.000122849
-1.09633e-06
-0.000122267
-1.30038e-06
-0.000121588
-1.52774e-06
-0.000120803
-1.77696e-06
-0.000119906
-2.04521e-06
-0.00011889
-2.32768e-06
-0.000117752
-2.61753e-06
-0.000116494
-2.90593e-06
-0.000115121
-3.18247e-06
-0.000113644
-3.43584e-06
-0.000112078
-3.65482e-06
-0.000110442
-3.82936e-06
-0.000108758
-3.95162e-06
-0.000107049
-4.01675e-06
-0.000105342
-4.02333e-06
-0.000103659
-3.97333e-06
-0.000102021
-3.87177e-06
-0.000100447
-3.72595e-06
-9.89524e-05
-3.54464e-06
-9.75468e-05
-3.33714e-06
-9.62373e-05
-3.11253e-06
-9.50276e-05
-2.87907e-06
-9.3918e-05
-2.64383e-06
-9.29069e-05
-2.41249e-06
-9.19905e-05
-2.18934e-06
-9.1164e-05
-1.97743e-06
-9.04218e-05
-1.7787e-06
-8.97576e-05
-1.59421e-06
-8.91653e-05
-1.42435e-06
-8.858e-05
-1.40995e-06
-8.79984e-05
-1.40257e-06
-8.74176e-05
-1.40177e-06
-8.68349e-05
-1.40725e-06
-8.62479e-05
-1.41869e-06
-8.5654e-05
-1.43579e-06
-8.50511e-05
-1.45821e-06
-8.44371e-05
-1.48563e-06
-8.38101e-05
-1.51767e-06
-8.31683e-05
-1.55394e-06
-8.25102e-05
-1.59398e-06
-8.18344e-05
-1.63729e-06
-8.11399e-05
-1.68328e-06
-8.04259e-05
-1.73132e-06
-7.96918e-05
-1.78066e-06
-7.89376e-05
-1.83047e-06
-7.81634e-05
-1.87983e-06
-7.73701e-05
-1.92772e-06
-7.65586e-05
-1.973e-06
-7.57306e-05
-2.01445e-06
-7.48885e-05
-2.05074e-06
-7.40349e-05
-2.08044e-06
-7.31734e-05
-2.10209e-06
-7.23079e-05
-2.11415e-06
-7.1443e-05
-2.11511e-06
-7.05841e-05
-2.10349e-06
-6.9737e-05
-2.0779e-06
-6.89079e-05
-2.03714e-06
-6.81036e-05
-1.98025e-06
-6.73311e-05
-1.9066e-06
-6.65974e-05
-1.81595e-06
-6.59097e-05
-1.70852e-06
-6.52745e-05
-1.58502e-06
-6.46981e-05
-1.44674e-06
-6.41861e-05
-1.29544e-06
-6.37429e-05
-1.13343e-06
-6.3372e-05
-9.63371e-07
-6.30755e-05
-7.882e-07
-6.28546e-05
-6.10909e-07
-6.27089e-05
-4.34332e-07
-6.26371e-05
-2.60903e-07
-6.2637e-05
-9.24845e-08
-6.27033e-05
6.77213e-08
-6.28314e-05
2.16227e-07
-6.30189e-05
3.55135e-07
-6.32624e-05
4.89222e-07
-6.35586e-05
6.21631e-07
-6.39043e-05
7.56077e-07
-6.4295e-05
8.96931e-07
-6.47249e-05
1.04945e-06
-6.51857e-05
1.22003e-06
-6.56657e-05
1.41655e-06
-6.61506e-05
1.64855e-06
-6.6624e-05
1.92656e-06
-6.70695e-05
2.26054e-06
-6.74721e-05
2.65633e-06
-6.78124e-05
3.08392e-06
-6.80684e-05
3.54053e-06
5.38086e-06
-0.000205793
3.0154e-06
-0.000207288
4.87146e-06
-0.000208663
4.56405e-06
-0.000210032
4.52845e-06
-0.000211385
4.46869e-06
-0.000212761
4.5129e-06
-0.000214184
4.62269e-06
-0.000215674
4.79075e-06
-0.000217245
4.99831e-06
-0.000218907
5.23417e-06
-0.000220667
5.49121e-06
-0.00022253
5.76761e-06
-0.000224503
6.06511e-06
-0.000226594
6.38777e-06
-0.000228812
6.74066e-06
-0.000231168
7.12892e-06
-0.000233677
7.55696e-06
-0.000236351
8.02812e-06
-0.000239206
8.54428e-06
-0.000242258
9.1058e-06
-0.00024552
9.71122e-06
-0.000249006
1.03573e-05
-0.00025273
1.10388e-05
-0.0002567
1.17487e-05
-0.000260925
1.24781e-05
-0.000265409
1.32161e-05
-0.000270151
1.39508e-05
-0.000275149
1.46687e-05
-0.000280393
1.53556e-05
-0.000285872
1.59967e-05
-0.000291567
1.65775e-05
-0.000297456
1.70835e-05
-0.00030351
1.75014e-05
-0.000309699
1.78186e-05
-0.000315984
1.8024e-05
-0.000322325
1.81081e-05
-0.000328677
1.80624e-05
-0.000334993
1.788e-05
-0.000341221
1.75551e-05
-0.000347309
1.70829e-05
-0.000353202
1.64591e-05
-0.000358844
1.56802e-05
-0.000364178
1.47431e-05
-0.000369148
1.36456e-05
-0.000373694
1.23859e-05
-0.000377762
1.09638e-05
-0.000381296
9.38024e-06
-0.000384241
7.63778e-06
-0.000386547
5.74086e-06
-0.000388165
3.69545e-06
-0.000389051
1.50828e-06
-0.000389166
-8.1322e-07
-0.000388479
-3.26751e-06
-0.000386958
-5.87021e-06
-0.000384563
-8.62635e-06
-0.000381259
-1.15233e-05
-0.000377017
-1.4545e-05
-0.000371817
-1.76721e-05
-0.000365646
-2.08815e-05
-0.000358508
-2.41454e-05
-0.000350415
-2.74286e-05
-0.000341401
-3.06866e-05
-0.000331517
-3.38608e-05
-0.000320835
-3.68742e-05
-0.000309453
-3.96239e-05
-0.000297483
-4.19745e-05
-0.000285048
-4.37513e-05
-0.000272252
-4.47384e-05
-0.000259148
-4.46874e-05
-0.000245706
-4.33443e-05
-0.000231824
-4.05001e-05
-0.000217441
-3.60568e-05
-0.000202782
-3.00891e-05
-0.000188679
-2.29186e-05
-0.000176698
-1.5235e-05
-0.000168408
-8.14524e-06
-0.000164122
-2.80376e-06
-0.000162745
3.08868e-07
-0.000162798
1.58518e-06
-0.000163281
1.81668e-06
-0.00016378
1.64892e-06
-0.000164185
1.38469e-06
-0.00016449
1.11694e-06
-0.000164714
8.71517e-07
-0.000164867
6.44786e-07
-0.000164954
4.28889e-07
-0.000164973
2.22212e-07
-0.000164928
2.55986e-08
-0.000164821
-1.60547e-07
-0.000164655
-3.36355e-07
-0.000164433
-5.02294e-07
-0.00016416
-6.59166e-07
-0.000163838
-8.08033e-07
-0.000163469
-9.50054e-07
-0.000163056
-1.0864e-06
-0.000162599
-1.21823e-06
-0.000162099
-1.34662e-06
-0.000161558
-1.4726e-06
-0.000160975
-1.597e-06
-0.000160351
-1.72049e-06
-0.000159615
-2.03579e-06
-0.000158756
-2.38691e-06
-0.000157762
-2.77132e-06
-0.000156623
-3.18444e-06
-0.000155332
-3.61858e-06
-0.000153886
-4.06293e-06
-0.000152288
-4.50365e-06
-0.000150546
-4.92452e-06
-0.000148674
-5.30814e-06
-0.000146691
-5.63739e-06
-0.000144624
-5.89709e-06
-0.0001425
-6.07562e-06
-0.000140351
-6.166e-06
-0.000138207
-6.16657e-06
-0.0001361
-6.08085e-06
-0.000134055
-5.9169e-06
-0.000132094
-5.68621e-06
-0.000130236
-5.40239e-06
-0.000128494
-5.07977e-06
-0.000126874
-4.73223e-06
-0.000125381
-4.37235e-06
-0.000124014
-4.01079e-06
-0.00012277
-3.65611e-06
-0.000121645
-3.31475e-06
-0.000120631
-2.99121e-06
-0.000119721
-2.68837e-06
-0.000118908
-2.40774e-06
-0.000118182
-2.14982e-06
-0.000117465
-2.127e-06
-0.000116753
-2.11492e-06
-0.000116042
-2.11282e-06
-0.000115329
-2.12023e-06
-0.000114611
-2.13662e-06
-0.000113885
-2.1615e-06
-0.000113149
-2.19437e-06
-0.0001124
-2.23469e-06
-0.000111636
-2.28187e-06
-0.000110854
-2.33528e-06
-0.000110054
-2.39421e-06
-0.000109234
-2.45788e-06
-0.000108391
-2.52539e-06
-0.000107527
-2.59576e-06
-0.00010664
-2.66784e-06
-0.00010573
-2.74039e-06
-0.000104798
-2.812e-06
-0.000103844
-2.88113e-06
-0.000102871
-2.94607e-06
-0.000101881
-3.005e-06
-0.000100876
-3.05592e-06
-9.98594e-05
-3.09676e-06
-9.88362e-05
-3.12534e-06
-9.78109e-05
-3.13944e-06
-9.67891e-05
-3.13686e-06
-9.57771e-05
-3.11547e-06
-9.47817e-05
-3.07332e-06
-9.381e-05
-3.00873e-06
-9.28698e-05
-2.9204e-06
-9.19689e-05
-2.80752e-06
-9.11149e-05
-2.66987e-06
-9.03155e-05
-2.50794e-06
-8.95776e-05
-2.32296e-06
-8.89074e-05
-2.117e-06
-8.831e-05
-1.89292e-06
-8.77892e-05
-1.65432e-06
-8.73473e-05
-1.40542e-06
-8.69847e-05
-1.15082e-06
-8.67004e-05
-8.95278e-07
-8.64914e-05
-6.43386e-07
-8.63531e-05
-3.9923e-07
-8.62795e-05
-1.66163e-07
-8.62645e-05
5.26953e-08
-8.63023e-05
2.54036e-07
-8.63856e-05
4.38439e-07
-8.65062e-05
6.09846e-07
-8.66559e-05
7.71445e-07
-8.68269e-05
9.27115e-07
-8.70115e-05
1.08149e-06
-8.72021e-05
1.24012e-06
-8.73918e-05
1.40974e-06
-8.75738e-05
1.59856e-06
-8.77416e-05
1.81644e-06
-8.78892e-05
2.07411e-06
-8.80102e-05
2.38162e-06
-8.80988e-05
2.74491e-06
-8.81457e-05
3.13081e-06
-8.81361e-05
3.53092e-06
5.18898e-06
-0.00026315
4.10785e-06
-0.000264906
6.62747e-06
-0.000266517
6.17479e-06
-0.000268125
6.13642e-06
-0.000269716
6.05993e-06
-0.000271338
6.13515e-06
-0.00027302
6.30421e-06
-0.000274786
6.55676e-06
-0.000276653
6.86525e-06
-0.000278632
7.21329e-06
-0.000280731
7.59043e-06
-0.000282957
7.99386e-06
-0.000285318
8.42592e-06
-0.000287823
8.89238e-06
-0.000290483
9.40044e-06
-0.000293311
9.95738e-06
-0.000296323
1.05695e-05
-0.000299537
1.12415e-05
-0.000302969
1.19762e-05
-0.000306637
1.27741e-05
-0.000310559
1.36334e-05
-0.000314752
1.45497e-05
-0.000319229
1.5516e-05
-0.000324003
1.65229e-05
-0.000329083
1.75581e-05
-0.000334474
1.86075e-05
-0.000340178
1.96546e-05
-0.000346191
2.06814e-05
-0.000352504
2.16686e-05
-0.000359104
2.25963e-05
-0.00036597
2.34444e-05
-0.00037308
2.41928e-05
-0.000380401
2.48228e-05
-0.000387899
2.53163e-05
-0.000395532
2.56571e-05
-0.000403254
2.58304e-05
-0.000411015
2.58234e-05
-0.00041876
2.56246e-05
-0.000426429
2.52245e-05
-0.000433961
2.46145e-05
-0.000441289
2.37876e-05
-0.000448347
2.27378e-05
-0.000455064
2.14602e-05
-0.00046137
1.99514e-05
-0.000467194
1.82097e-05
-0.000472465
1.62352e-05
-0.000477115
1.40303e-05
-0.000481078
1.16005e-05
-0.000484291
8.95372e-06
-0.000486696
6.10098e-06
-0.000488243
3.05529e-06
-0.000488887
-1.69337e-07
-0.000488599
-3.55528e-06
-0.000487358
-7.1114e-06
-0.000485134
-1.08502e-05
-0.000481901
-1.47565e-05
-0.00047764
-1.88056e-05
-0.000472345
-2.2967e-05
-0.000466022
-2.72045e-05
-0.000458693
-3.14749e-05
-0.000450395
-3.57265e-05
-0.000441185
-3.98972e-05
-0.000431134
-4.39113e-05
-0.000420331
-4.76768e-05
-0.000408873
-5.10822e-05
-0.000396853
-5.39941e-05
-0.000384347
-5.62578e-05
-0.000371385
-5.77004e-05
-0.000357931
-5.8141e-05
-0.000343869
-5.74066e-05
-0.000329015
-5.53545e-05
-0.000313177
-5.18948e-05
-0.000296256
-4.70102e-05
-0.000278397
-4.07775e-05
-0.000260226
-3.34062e-05
-0.000243063
-2.53075e-05
-0.000228695
-1.71722e-05
-0.000218461
-9.92464e-06
-0.000212495
-4.38115e-06
-0.000209845
-8.33062e-07
-0.000209175
9.78255e-07
-0.00020938
1.58957e-06
-0.000209829
1.56664e-06
-0.000210257
1.29878e-06
-0.000210572
9.60352e-07
-0.000210764
6.20809e-07
-0.000210847
3.05088e-07
-0.000210838
1.60513e-08
-0.000210747
-2.51475e-07
-0.000210581
-5.01994e-07
-0.000210345
-7.38311e-07
-0.000210042
-9.62235e-07
-0.000209675
-1.17529e-06
-0.000209246
-1.37899e-06
-0.000208758
-1.57492e-06
-0.000208211
-1.76468e-06
-0.000207608
-1.9499e-06
-0.000206949
-2.13212e-06
-0.000206233
-2.3128e-06
-0.00020546
-2.49315e-06
-0.000204543
-2.9533e-06
-0.000203463
-3.46652e-06
-0.000202206
-4.02842e-06
-0.000200759
-4.63164e-06
-0.000199113
-5.26438e-06
-0.000197266
-5.9102e-06
-0.000195221
-6.5484e-06
-0.000192991
-7.15502e-06
-0.000190594
-7.70462e-06
-0.000188059
-8.1725e-06
-0.000185419
-8.53711e-06
-0.000182712
-8.78226e-06
-0.000179979
-8.89869e-06
-0.000177261
-8.88485e-06
-0.000174595
-8.7467e-06
-0.000172015
-8.49662e-06
-0.00016955
-8.15181e-06
-0.00016722
-7.7323e-06
-0.00016504
-7.25899e-06
-0.000163021
-6.752e-06
-0.000161164
-6.22938e-06
-0.000159468
-5.70638e-06
-0.000157929
-5.19509e-06
-0.000156539
-4.70455e-06
-0.000155289
-4.24097e-06
-0.000154169
-3.80824e-06
-0.000153169
-3.40827e-06
-0.000152277
-3.04157e-06
-0.000151396
-3.00806e-06
-0.000150521
-2.98998e-06
-0.000149648
-2.9861e-06
-0.000148772
-2.99565e-06
-0.000147891
-3.01788e-06
-0.000147001
-3.05205e-06
-0.000146097
-3.09739e-06
-0.000145179
-3.1531e-06
-0.000144243
-3.21832e-06
-0.000143286
-3.29211e-06
-0.000142306
-3.37343e-06
-0.000141303
-3.46114e-06
-0.000140275
-3.55394e-06
-0.00013922
-3.65039e-06
-0.000138139
-3.74889e-06
-0.000137032
-3.84765e-06
-0.000135899
-3.94469e-06
-0.000134742
-4.03785e-06
-0.000133564
-4.12475e-06
-0.000132366
-4.20284e-06
-0.000131152
-4.26941e-06
-0.000129928
-4.32162e-06
-0.000128696
-4.35652e-06
-0.000127465
-4.37115e-06
-0.000126239
-4.3626e-06
-0.000125026
-4.32811e-06
-0.000123834
-4.26519e-06
-0.000122671
-4.17175e-06
-0.000121545
-4.04625e-06
-0.000120465
-3.88787e-06
-0.000119438
-3.69659e-06
-0.000118473
-3.47337e-06
-0.000117576
-3.22024e-06
-0.000116752
-2.94031e-06
-0.000116008
-2.63775e-06
-0.000115344
-2.31771e-06
-0.000114764
-1.98615e-06
-0.000114265
-1.64949e-06
-0.000113846
-1.31433e-06
-0.000113503
-9.86964e-07
-0.000113229
-6.73043e-07
-0.000113018
-3.77177e-07
-0.000112862
-1.02734e-07
-0.000112756
1.47724e-07
-0.000112691
3.73558e-07
-0.000112659
5.77407e-07
-0.00011265
7.63216e-07
-0.000112659
9.35513e-07
-0.000112677
1.0997e-06
-0.000112699
1.26209e-06
-0.000112719
1.43002e-06
-0.000112733
1.61207e-06
-0.000112734
1.81811e-06
-0.000112719
2.05848e-06
-0.00011268
2.34268e-06
-0.000112611
2.67662e-06
-0.000112506
3.02539e-06
-0.000112351
3.37581e-06
4.81164e-06
-0.000329209
5.3653e-06
-0.000331207
8.62519e-06
-0.000333042
8.00992e-06
-0.000334877
7.97161e-06
-0.000336696
7.87934e-06
-0.000338555
7.99396e-06
-0.000340486
8.23482e-06
-0.000342517
8.58798e-06
-0.000344667
9.01569e-06
-0.00034695
9.49567e-06
-0.000349373
1.00137e-05
-0.000351945
1.05659e-05
-0.000354674
1.11554e-05
-0.000357572
1.17899e-05
-0.000360651
1.24791e-05
-0.000363926
1.32328e-05
-0.000367416
1.40592e-05
-0.000371139
1.49648e-05
-0.000375116
1.59531e-05
-0.000379367
1.7025e-05
-0.000383911
1.8178e-05
-0.000388768
1.94064e-05
-0.000393953
2.07014e-05
-0.000399481
2.20506e-05
-0.000405362
2.34387e-05
-0.000411602
2.48474e-05
-0.000418203
2.62558e-05
-0.000425163
2.76411e-05
-0.000432472
2.89786e-05
-0.000440119
3.0243e-05
-0.000448083
3.14085e-05
-0.00045634
3.24494e-05
-0.000464858
3.3341e-05
-0.000473601
3.40597e-05
-0.000482528
3.45833e-05
-0.000491589
3.48915e-05
-0.000500731
3.49658e-05
-0.000509896
3.47892e-05
-0.000519018
3.43468e-05
-0.000528028
3.36251e-05
-0.000536853
3.26121e-05
-0.000545413
3.12979e-05
-0.000553627
2.96744e-05
-0.000561412
2.77356e-05
-0.000568681
2.54787e-05
-0.000575349
2.2904e-05
-0.000581335
2.00158e-05
-0.000586557
1.68226e-05
-0.000590941
1.33376e-05
-0.000594419
9.57879e-06
-0.000596932
5.56804e-06
-0.000598432
1.33137e-06
-0.000598891
-3.09637e-06
-0.000598302
-7.70024e-06
-0.000596661
-1.24918e-05
-0.000593958
-1.74595e-05
-0.000590193
-2.25698e-05
-0.000585381
-2.77799e-05
-0.000579546
-3.30387e-05
-0.000572734
-3.82876e-05
-0.000565
-4.34596e-05
-0.000556419
-4.84789e-05
-0.00054707
-5.32599e-05
-0.00053704
-5.77064e-05
-0.000526411
-6.17119e-05
-0.000515245
-6.51598e-05
-0.000503576
-6.79268e-05
-0.00049139
-6.98862e-05
-0.000478616
-7.09156e-05
-0.000465117
-7.09049e-05
-0.000450706
-6.97658e-05
-0.00043516
-6.74405e-05
-0.000418263
-6.39072e-05
-0.000399856
-5.91847e-05
-0.000379926
-5.33359e-05
-0.000358759
-4.64751e-05
-0.00033714
-3.8791e-05
-0.000316464
-3.0601e-05
-0.000298428
-2.24166e-05
-0.000284342
-1.49192e-05
-0.00027461
-8.75349e-06
-0.000268768
-4.25257e-06
-0.000265833
-1.36825e-06
-0.000264709
1.74698e-07
-0.000264505
7.55766e-07
-0.000264657
7.73518e-07
-0.000264877
5.25288e-07
-0.000265033
1.71635e-07
-0.000265074
-2.10951e-07
-0.00026499
-5.85895e-07
-0.000264789
-9.39295e-07
-0.000264482
-1.2693e-06
-0.000264078
-1.57871e-06
-0.000263586
-1.87134e-06
-0.00026301
-2.15087e-06
-0.000262354
-2.42066e-06
-0.00026162
-2.68375e-06
-0.000260809
-2.94292e-06
-0.000259921
-3.20076e-06
-0.000258955
-3.45953e-06
-0.000257798
-4.10957e-06
-0.000256428
-4.83671e-06
-0.000254823
-5.63366e-06
-0.000252966
-6.48877e-06
-0.000250846
-7.38409e-06
-0.000248461
-8.29512e-06
-0.000245818
-9.19158e-06
-0.000242934
-1.0039e-05
-0.000239837
-1.08014e-05
-0.000236565
-1.14444e-05
-0.000233164
-1.19385e-05
-0.000229684
-1.22622e-05
-0.000226179
-1.24038e-05
-0.000222701
-1.23626e-05
-0.0002193
-1.21481e-05
-0.000216018
-1.17789e-05
-0.00021289
-1.12797e-05
-0.000209943
-1.06792e-05
-0.000207195
-1.00069e-05
-0.000204656
-9.29091e-06
-0.000202329
-8.55646e-06
-0.000200211
-7.82455e-06
-0.000198294
-7.11179e-06
-0.000196568
-6.4304e-06
-0.000195021
-5.78869e-06
-0.000193637
-5.19164e-06
-0.000192404
-4.6416e-06
-0.000191307
-4.13891e-06
-0.000190224
-4.09093e-06
-0.000189149
-4.06457e-06
-0.000188077
-4.05784e-06
-0.000187004
-4.06956e-06
-0.000185923
-4.09861e-06
-0.000184831
-4.14392e-06
-0.000183724
-4.20437e-06
-0.000182598
-4.2788e-06
-0.000181451
-4.36599e-06
-0.000180278
-4.46457e-06
-0.000179079
-4.57309e-06
-0.00017785
-4.68992e-06
-0.000176591
-4.81325e-06
-0.0001753
-4.94109e-06
-0.000173978
-5.07121e-06
-0.000172624
-5.20118e-06
-0.000171241
-5.32829e-06
-0.000169829
-5.44962e-06
-0.000168392
-5.56201e-06
-0.000166932
-5.66205e-06
-0.000165456
-5.74619e-06
-0.000163967
-5.81068e-06
-0.000162471
-5.85173e-06
-0.000160977
-5.86553e-06
-0.000159491
-5.84841e-06
-0.000158022
-5.79694e-06
-0.000156579
-5.70806e-06
-0.000155172
-5.57932e-06
-0.000153809
-5.40902e-06
-0.0001525
-5.19639e-06
-0.000151255
-4.9418e-06
-0.000150082
-4.64686e-06
-0.000148987
-4.31458e-06
-0.000147979
-3.94935e-06
-0.000147059
-3.55691e-06
-0.000146233
-3.1442e-06
-0.0001455
-2.71912e-06
-0.00014486
-2.2901e-06
-0.000144308
-1.86571e-06
-0.000143841
-1.45411e-06
-0.000143452
-1.06256e-06
-0.000143132
-6.96952e-07
-0.000142873
-3.6154e-07
-0.000142667
-5.87339e-08
-0.000142504
2.10767e-07
-0.000142375
4.48902e-07
-0.000142272
6.60008e-07
-0.000142186
8.49436e-07
-0.00014211
1.02347e-06
-0.000142037
1.18924e-06
-0.000141961
1.35477e-06
-0.000141878
1.529e-06
-0.000141782
1.72179e-06
-0.000141667
1.94307e-06
-0.000141526
2.20179e-06
-0.000141353
2.50378e-06
-0.00014114
2.81224e-06
-0.000140878
3.11449e-06
4.29786e-06
-0.000401685
6.74769e-06
-0.000403845
1.07853e-05
-0.000405835
9.99968e-06
-0.000407828
9.96492e-06
-0.000409808
9.85931e-06
-0.000411835
1.00208e-05
-0.000413944
1.03436e-05
-0.000416165
1.08096e-05
-0.00041852
1.13701e-05
-0.00042102
1.19963e-05
-0.000423677
1.26701e-05
-0.000426497
1.33866e-05
-0.000429492
1.41499e-05
-0.000432672
1.49699e-05
-0.000436052
1.5859e-05
-0.000439648
1.68294e-05
-0.000443481
1.78917e-05
-0.00044757
1.90538e-05
-0.000451937
2.03204e-05
-0.000456604
2.16922e-05
-0.000461593
2.31663e-05
-0.000466922
2.47355e-05
-0.000472609
2.63889e-05
-0.00047867
2.81114e-05
-0.000485116
2.98843e-05
-0.000491954
3.16854e-05
-0.000499187
3.34896e-05
-0.000506816
3.52693e-05
-0.000514832