/*--------------------------------*- C++ -*----------------------------------*\
| =========                 |                                                 |
| \\      /  F ield         | OpenFOAM: The Open Source CFD Toolbox           |
|  \\    /   O peration     | Version:  2406                                  |
|   \\  /    A nd           | Website:  www.openfoam.com                      |
|    \\/     M anipulation  |                                                 |
\*---------------------------------------------------------------------------*/
FoamFile
{
    version     2.0;
    format      ascii;
    arch        "LSB;label=32;scalar=64";
    class       volScalarField;
    location    "600";
    object      T;
}
// * * * * * * * * * * * * * * * * * * * * * * * * * * * * * * * * * * * * * //

dimensions      [0 0 0 1 0 0 0];

internalField   nonuniform List<scalar> 
5619
(
298.966
298.845
298.788
298.707
298.638
298.567
298.499
298.433
298.368
298.305
298.244
298.184
298.126
298.069
298.011
297.953
297.893
297.834
297.774
297.711
297.642
297.563
297.472
297.368
297.254
297.13
296.999
296.864
296.73
296.599
296.473
296.353
296.239
296.134
296.035
295.943
295.856
295.771
295.688
295.607
295.527
295.447
295.369
295.291
295.213
295.135
295.057
294.979
294.9
294.82
294.739
294.657
294.574
294.489
294.403
294.315
294.225
294.134
294.041
293.947
293.852
293.757
293.663
293.571
293.482
293.398
293.321
293.254
293.199
293.167
293.154
293.151
293.15
293.15
293.15
293.15
293.15
293.15
293.15
293.15
293.15
293.15
293.15
293.15
293.15
293.15
293.15
293.15
293.15
293.15
293.15
293.15
293.15
293.15
293.15
293.15
293.15
293.15
293.15
293.15
293.15
293.15
293.15
293.15
293.15
293.15
293.15
293.15
293.15
293.15
293.15
293.15
293.15
293.15
293.15
293.15
293.15
293.15
293.15
293.15
293.15
293.15
293.15
293.15
293.15
293.15
293.15
293.15
293.15
293.15
293.15
293.15
293.15
293.15
293.15
293.15
293.15
293.15
293.15
293.15
293.15
293.15
293.15
293.15
293.15
293.15
293.15
293.15
293.15
293.15
293.15
293.15
293.15
293.15
293.15
293.15
293.15
293.15
293.15
293.15
293.15
293.15
293.15
293.15
293.15
293.15
293.15
293.15
293.15
293.15
293.15
293.15
293.15
293.15
293.15
293.15
293.15
293.15
293.15
293.15
293.15
293.15
293.15
293.15
293.15
293.15
293.15
298.997
298.875
298.818
298.737
298.668
298.597
298.528
298.462
298.397
298.334
298.272
298.213
298.155
298.098
298.041
297.984
297.925
297.866
297.807
297.746
297.681
297.609
297.525
297.43
297.324
297.209
297.087
296.961
296.833
296.709
296.589
296.475
296.367
296.267
296.175
296.09
296.01
295.936
295.863
295.792
295.723
295.654
295.586
295.519
295.452
295.385
295.317
295.248
295.179
295.107
295.034
294.959
294.881
294.801
294.717
294.63
294.539
294.445
294.347
294.244
294.138
294.029
293.917
293.803
293.69
293.579
293.472
293.373
293.287
293.218
293.174
293.156
293.151
293.15
293.15
293.15
293.15
293.15
293.15
293.15
293.15
293.15
293.15
293.15
293.15
293.15
293.15
293.15
293.15
293.15
293.15
293.15
293.15
293.15
293.15
293.15
293.15
293.15
293.15
293.15
293.15
293.15
293.15
293.15
293.15
293.15
293.15
293.15
293.15
293.15
293.15
293.15
293.15
293.15
293.15
293.15
293.15
293.15
293.15
293.15
293.15
293.15
293.15
293.15
293.15
293.15
293.15
293.15
293.15
293.15
293.15
293.15
293.15
293.15
293.15
293.15
293.15
293.15
293.15
293.15
293.15
293.15
293.15
293.15
293.15
293.15
293.15
293.15
293.15
293.15
293.15
293.15
293.15
293.15
293.15
293.15
293.15
293.15
293.15
293.15
293.15
293.15
293.15
293.15
293.15
293.15
293.15
293.15
293.15
293.15
293.15
293.15
293.15
293.15
293.15
293.15
293.15
293.15
293.15
293.15
293.15
293.15
293.15
293.15
293.15
293.15
293.15
299.017
298.896
298.839
298.757
298.687
298.617
298.548
298.481
298.417
298.354
298.292
298.233
298.175
298.118
298.062
298.005
297.948
297.889
297.83
297.771
297.708
297.639
297.56
297.47
297.37
297.262
297.147
297.028
296.908
296.79
296.677
296.57
296.469
296.376
296.292
296.215
296.144
296.079
296.017
295.956
295.897
295.839
295.782
295.725
295.668
295.611
295.553
295.493
295.432
295.368
295.303
295.234
295.162
295.087
295.007
294.923
294.833
294.738
294.637
294.531
294.418
294.299
294.175
294.046
293.914
293.782
293.652
293.527
293.411
293.31
293.231
293.18
293.158
293.152
293.15
293.15
293.15
293.15
293.15
293.15
293.15
293.15
293.15
293.15
293.15
293.15
293.15
293.15
293.15
293.15
293.15
293.15
293.15
293.15
293.15
293.15
293.15
293.15
293.15
293.15
293.15
293.15
293.15
293.15
293.15
293.15
293.15
293.15
293.15
293.15
293.15
293.15
293.15
293.15
293.15
293.15
293.15
293.15
293.15
293.15
293.15
293.15
293.15
293.15
293.15
293.15
293.15
293.15
293.15
293.15
293.15
293.15
293.15
293.15
293.15
293.15
293.15
293.15
293.15
293.15
293.15
293.15
293.15
293.15
293.15
293.15
293.15
293.15
293.15
293.15
293.15
293.15
293.15
293.15
293.15
293.15
293.15
293.15
293.15
293.15
293.15
293.15
293.15
293.15
293.15
293.15
293.15
293.15
293.15
293.15
293.15
293.15
293.15
293.15
293.15
293.15
293.15
293.15
293.15
293.15
293.15
293.15
293.15
293.15
293.15
293.15
293.15
299.029
298.908
298.851
298.77
298.7
298.629
298.561
298.495
298.43
298.367
298.307
298.247
298.19
298.134
298.078
298.022
297.965
297.907
297.849
297.79
297.729
297.662
297.585
297.499
297.404
297.301
297.193
297.081
296.969
296.859
296.754
296.655
296.564
296.48
296.405
296.338
296.278
296.223
296.172
296.123
296.075
296.029
295.984
295.938
295.893
295.847
295.8
295.751
295.701
295.648
295.593
295.533
295.47
295.403
295.33
295.252
295.168
295.077
294.978
294.872
294.759
294.637
294.507
294.369
294.224
294.075
293.923
293.772
293.626
293.488
293.367
293.268
293.198
293.167
293.154
293.151
293.15
293.15
293.15
293.15
293.15
293.15
293.15
293.15
293.15
293.15
293.15
293.15
293.15
293.15
293.15
293.15
293.15
293.15
293.15
293.15
293.15
293.15
293.15
293.15
293.15
293.15
293.15
293.15
293.15
293.15
293.15
293.15
293.15
293.15
293.15
293.15
293.15
293.15
293.15
293.15
293.15
293.15
293.15
293.15
293.15
293.15
293.15
293.15
293.15
293.15
293.15
293.15
293.15
293.15
293.15
293.15
293.15
293.15
293.15
293.15
293.15
293.15
293.15
293.15
293.15
293.15
293.15
293.15
293.15
293.15
293.15
293.15
293.15
293.15
293.15
293.15
293.15
293.15
293.15
293.15
293.15
293.15
293.15
293.15
293.15
293.15
293.15
293.15
293.15
293.15
293.15
293.15
293.15
293.15
293.15
293.15
293.15
293.15
293.15
293.15
293.15
293.15
293.15
293.15
293.15
293.15
293.15
293.15
293.15
293.15
293.15
299.034
298.914
298.857
298.777
298.707
298.637
298.57
298.504
298.44
298.378
298.318
298.26
298.203
298.147
298.092
298.037
297.981
297.924
297.867
297.808
297.748
297.682
297.608
297.525
297.434
297.336
297.235
297.131
297.028
296.928
296.833
296.745
296.665
296.593
296.53
296.475
296.427
296.384
296.347
296.311
296.278
296.245
296.214
296.183
296.152
296.121
296.088
296.054
296.019
295.98
295.939
295.893
295.844
295.789
295.729
295.663
295.59
295.51
295.421
295.324
295.217
295.101
294.974
294.836
294.688
294.529
294.363
294.189
294.012
293.837
293.667
293.509
293.372
293.263
293.196
293.167
293.155
293.151
293.15
293.15
293.15
293.15
293.15
293.15
293.15
293.15
293.15
293.15
293.15
293.15
293.15
293.15
293.15
293.15
293.15
293.15
293.15
293.15
293.15
293.15
293.15
293.15
293.15
293.15
293.15
293.15
293.15
293.15
293.15
293.15
293.15
293.15
293.15
293.15
293.15
293.15
293.15
293.15
293.15
293.15
293.15
293.15
293.15
293.15
293.15
293.15
293.15
293.15
293.15
293.15
293.15
293.15
293.15
293.15
293.15
293.15
293.15
293.15
293.15
293.15
293.15
293.15
293.15
293.15
293.15
293.15
293.15
293.15
293.15
293.15
293.15
293.15
293.15
293.15
293.15
293.15
293.15
293.15
293.15
293.15
293.15
293.15
293.15
293.15
293.15
293.15
293.15
293.15
293.15
293.15
293.15
293.15
293.15
293.15
293.15
293.15
293.15
293.15
293.15
293.15
293.15
293.15
293.15
293.15
293.15
293.15
293.15
299.035
298.917
298.86
298.781
298.712
298.643
298.576
298.511
298.449
298.388
298.329
298.272
298.216
298.161
298.107
298.053
297.998
297.942
297.885
297.828
297.768
297.703
297.631
297.551
297.465
297.373
297.279
297.185
297.093
297.005
296.922
296.847
296.781
296.724
296.675
296.635
296.602
296.575
296.553
296.534
296.516
296.5
296.487
296.474
296.462
296.448
296.436
296.42
296.406
296.385
296.367
296.339
296.314
296.276
296.239
296.19
296.139
296.076
296.008
295.928
295.84
295.74
295.628
295.502
295.364
295.21
295.042
294.861
294.667
294.462
294.25
294.037
293.829
293.634
293.459
293.317
293.222
293.18
293.161
293.153
293.151
293.15
293.15
293.15
293.15
293.15
293.15
293.15
293.15
293.15
293.15
293.15
293.15
293.15
293.15
293.15
293.15
293.15
293.15
293.15
293.15
293.15
293.15
293.15
293.15
293.15
293.15
293.15
293.15
293.15
293.15
293.15
293.15
293.15
293.15
293.15
293.15
293.15
293.15
293.15
293.15
293.15
293.15
293.15
293.15
293.15
293.15
293.15
293.15
293.15
293.15
293.15
293.15
293.15
293.15
293.15
293.15
293.15
293.15
293.15
293.15
293.15
293.15
293.15
293.15
293.15
293.15
293.15
293.15
293.15
293.15
293.15
293.15
293.15
293.15
293.15
293.15
293.15
293.15
293.15
293.15
293.15
293.15
293.15
293.15
293.15
293.15
293.15
293.15
293.15
293.15
293.15
293.15
293.15
293.15
293.15
293.15
293.15
293.15
293.15
293.15
293.15
293.15
293.15
293.15
293.15
293.15
299.034
298.918
298.861
298.784
298.716
298.649
298.583
298.52
298.459
298.399
298.342
298.286
298.232
298.179
298.126
298.073
298.019
297.964
297.909
297.852
297.793
297.73
297.66
297.583
297.503
297.419
297.334
297.251
297.172
297.097
297.029
296.97
296.92
296.879
296.847
296.824
296.808
296.801
296.797
296.796
296.797
296.8
296.807
296.819
296.826
296.841
296.845
296.86
296.864
296.878
296.879
296.887
296.89
296.878
296.872
296.85
296.833
296.791
296.759
296.701
296.646
296.569
296.486
296.385
296.271
296.139
295.991
295.825
295.641
295.438
295.218
294.981
294.73
294.472
294.212
293.956
293.714
293.499
293.334
293.23
293.185
293.164
293.155
293.152
293.151
293.15
293.15
293.15
293.15
293.15
293.15
293.15
293.15
293.15
293.15
293.15
293.15
293.15
293.15
293.15
293.15
293.15
293.15
293.15
293.15
293.15
293.15
293.15
293.15
293.15
293.15
293.15
293.15
293.15
293.15
293.15
293.15
293.15
293.15
293.15
293.15
293.15
293.15
293.15
293.15
293.15
293.15
293.15
293.15
293.15
293.15
293.15
293.15
293.15
293.15
293.15
293.15
293.15
293.15
293.15
293.15
293.15
293.15
293.15
293.15
293.15
293.15
293.15
293.15
293.15
293.15
293.15
293.15
293.15
293.15
293.15
293.15
293.15
293.15
293.15
293.15
293.15
293.15
293.15
293.15
293.15
293.15
293.15
293.15
293.15
293.15
293.15
293.15
293.15
293.15
293.15
293.15
293.15
293.15
293.15
293.15
293.15
293.15
293.15
293.15
293.15
293.15
299.033
298.921
298.865
298.79
298.724
298.658
298.594
298.533
298.473
298.416
298.36
298.306
298.254
298.202
298.151
298.099
298.047
297.994
297.94
297.885
297.828
297.766
297.699
297.628
297.555
297.48
297.407
297.336
297.27
297.211
297.16
297.117
297.085
297.062
297.048
297.045
297.045
297.057
297.074
297.094
297.118
297.146
297.177
297.211
297.247
297.285
297.323
297.363
297.402
297.441
297.477
297.512
297.543
297.569
297.591
297.606
297.616
297.619
297.623
297.609
297.594
297.546
297.508
297.443
297.372
297.279
297.17
297.043
296.897
296.731
296.545
296.338
296.111
295.863
295.594
295.305
294.999
294.679
294.353
294.031
293.728
293.485
293.313
293.222
293.182
293.163
293.155
293.152
293.151
293.15
293.15
293.15
293.15
293.15
293.15
293.15
293.15
293.15
293.15
293.15
293.15
293.15
293.15
293.15
293.15
293.15
293.15
293.15
293.15
293.15
293.15
293.15
293.15
293.15
293.15
293.15
293.15
293.15
293.15
293.15
293.15
293.15
293.15
293.15
293.15
293.15
293.15
293.15
293.15
293.15
293.15
293.15
293.15
293.15
293.15
293.15
293.15
293.15
293.15
293.15
293.15
293.15
293.15
293.15
293.15
293.15
293.15
293.15
293.15
293.15
293.15
293.15
293.15
293.15
293.15
293.15
293.15
293.15
293.15
293.15
293.15
293.15
293.15
293.15
293.15
293.15
293.15
293.15
293.15
293.15
293.15
293.15
293.15
293.15
293.15
293.15
293.15
293.15
293.15
293.15
293.15
293.15
293.15
293.15
293.15
293.15
293.15
299.037
298.929
298.874
298.801
298.737
298.673
298.612
298.552
298.495
298.44
298.386
298.335
298.284
298.235
298.186
298.136
298.086
298.035
297.984
297.931
297.876
297.817
297.755
297.691
297.625
297.561
297.5
297.443
297.392
297.349
297.314
297.289
297.274
297.27
297.273
297.288
297.31
297.339
297.376
297.417
297.463
297.514
297.569
297.628
297.689
297.754
297.82
297.888
297.956
298.024
298.091
298.155
298.217
298.276
298.33
298.38
298.425
298.465
298.498
298.523
298.54
298.547
298.553
298.542
298.526
298.486
298.439
298.375
298.297
298.202
298.09
297.961
297.812
297.643
297.452
297.238
297
296.737
296.446
296.126
295.775
295.396
294.992
294.574
294.162
293.791
293.494
293.293
293.209
293.179
293.164
293.156
293.152
293.151
293.15
293.15
293.15
293.15
293.15
293.15
293.15
293.15
293.15
293.15
293.15
293.15
293.15
293.15
293.15
293.15
293.15
293.15
293.15
293.15
293.15
293.15
293.15
293.15
293.15
293.15
293.15
293.15
293.15
293.15
293.15
293.15
293.15
293.15
293.15
293.15
293.15
293.15
293.15
293.15
293.15
293.15
293.15
293.15
293.15
293.15
293.15
293.15
293.15
293.15
293.15
293.15
293.15
293.15
293.15
293.15
293.15
293.15
293.15
293.15
293.15
293.15
293.15
293.15
293.15
293.15
293.15
293.15
293.15
293.15
293.15
293.15
293.15
293.15
293.15
293.15
293.15
293.15
293.15
293.15
293.15
293.15
293.15
293.15
293.15
293.15
293.15
293.15
293.15
293.15
293.15
293.15
293.15
299.049
298.945
298.891
298.821
298.759
298.698
298.639
298.582
298.527
298.475
298.424
298.375
298.327
298.28
298.233
298.185
298.138
298.09
298.041
297.992
297.94
297.886
297.83
297.773
297.718
297.665
297.616
297.573
297.536
297.508
297.489
297.481
297.48
297.493
297.514
297.544
297.582
297.628
297.68
297.739
297.803
297.872
297.947
298.025
298.106
298.191
298.277
298.365
298.455
298.544
298.633
298.722
298.809
298.893
298.976
299.054
299.129
299.2
299.265
299.326
299.38
299.429
299.471
299.506
299.534
299.556
299.571
299.578
299.587
299.587
299.564
299.535
299.498
299.454
299.401
299.339
299.266
299.182
299.088
298.983
298.862
298.718
298.541
298.318
298.035
297.679
297.235
296.703
296.098
295.465
294.858
294.303
293.812
293.41
293.221
293.165
293.158
293.156
293.154
293.153
293.152
293.152
293.151
293.15
293.15
293.15
293.15
293.15
293.15
293.15
293.15
293.15
293.15
293.15
293.15
293.15
293.15
293.15
293.15
293.15
293.15
293.15
293.15
293.15
293.15
293.15
293.15
293.15
293.15
293.15
293.15
293.15
293.15
293.15
293.15
293.15
293.15
293.15
293.15
293.15
293.15
293.15
293.15
293.15
293.15
293.15
293.15
293.15
293.15
293.15
293.15
293.15
293.15
293.15
293.15
293.15
293.15
293.15
293.15
293.15
293.15
293.15
293.15
293.15
293.15
293.15
293.15
293.15
293.15
293.15
293.15
293.15
293.15
293.15
293.15
293.15
293.15
293.15
293.15
293.15
293.15
293.15
293.15
293.15
293.15
293.15
293.15
299.072
298.972
298.92
298.852
298.793
298.734
298.678
298.623
298.571
298.521
298.473
298.427
298.382
298.337
298.293
298.249
298.204
298.16
298.115
298.069
298.021
297.973
297.924
297.876
297.83
297.788
297.751
297.72
297.696
297.682
297.676
297.679
297.694
297.718
297.751
297.792
297.842
297.898
297.961
298.03
298.105
298.184
298.268
298.356
298.448
298.542
298.639
298.737
298.837
298.938
299.038
299.139
299.239
299.338
299.437
299.534
299.629
299.722
299.812
299.9
299.986
300.069
300.149
300.225
300.299
300.368
300.434
300.496
300.554
300.61
300.664
300.718
300.773
300.83
300.893
300.961
301.038
301.125
301.225
301.342
301.482
301.651
301.857
302.105
302.397
302.729
303.089
303.45
303.761
303.917
303.92
303.397
302.58
301.587
300.383
299.145
297.988
297.121
296.575
296.032
295.466
294.892
294.325
293.749
293.366
293.188
293.157
293.154
293.152
293.151
293.15
293.15
293.15
293.15
293.15
293.15
293.15
293.15
293.15
293.15
293.15
293.15
293.15
293.15
293.15
293.15
293.15
293.15
293.15
293.15
293.15
293.15
293.15
293.15
293.15
293.15
293.15
293.15
293.15
293.15
293.15
293.15
293.15
293.15
293.15
293.15
293.15
293.15
293.15
293.15
293.15
293.15
293.15
293.15
293.15
293.15
293.15
293.15
293.15
293.15
293.15
293.15
293.15
293.15
293.15
293.15
293.15
293.15
293.15
293.15
293.15
293.15
293.15
293.15
293.15
293.15
293.15
293.15
293.15
293.15
293.15
293.15
293.15
293.15
293.15
293.15
293.15
299.105
299.01
298.96
298.895
298.838
298.782
298.728
298.676
298.627
298.58
298.534
298.491
298.448
298.406
298.365
298.324
298.284
298.243
298.201
298.16
298.118
298.076
298.034
297.995
297.958
297.925
297.898
297.877
297.864
297.858
297.862
297.876
297.899
297.93
297.969
298.017
298.071
298.131
298.198
298.269
298.346
298.428
298.513
298.602
298.694
298.788
298.885
298.983
299.082
299.182
299.283
299.383
299.483
299.582
299.682
299.781
299.88
299.98
300.079
300.179
300.28
300.382
300.485
300.589
300.695
300.803
300.912
301.022
301.133
301.245
301.357
301.469
301.581
301.692
301.806
301.924
302.052
302.191
302.345
302.52
302.723
302.965
303.259
303.62
304.069
304.626
305.317
306.164
307.184
308.378
309.718
311.138
312.543
313.69
314.273
314.593
313.851
313.146
312.277
311.338
310.236
308.941
307.455
305.744
303.766
301.519
299.063
296.98
295.444
293.943
293.295
293.168
293.156
293.151
293.15
293.15
293.15
293.15
293.15
293.15
293.15
293.15
293.15
293.15
293.15
293.15
293.15
293.15
293.15
293.15
293.15
293.15
293.15
293.15
293.15
293.15
293.15
293.15
293.15
293.15
293.15
293.15
293.15
293.15
293.15
293.15
293.15
293.15
293.15
293.15
293.15
293.15
293.15
293.15
293.15
293.15
293.15
293.15
293.15
293.15
293.15
293.15
293.15
293.15
293.15
293.15
293.15
293.15
293.15
293.15
293.15
293.15
293.15
293.15
293.15
293.15
293.15
293.15
293.15
293.15
293.15
293.15
293.15
293.15
293.15
293.15
293.15
299.15
299.058
299.01
298.948
298.893
298.839
298.788
298.739
298.692
298.647
298.604
298.563
298.523
298.485
298.447
298.409
298.372
298.335
298.298
298.261
298.224
298.189
298.154
298.121
298.092
298.067
298.048
298.035
298.029
298.028
298.04
298.058
298.084
298.118
298.159
298.207
298.261
298.32
298.384
298.453
298.526
298.603
298.683
298.766
298.852
298.939
299.028
299.118
299.208
299.298
299.388
299.478
299.567
299.656
299.747
299.839
299.932
300.027
300.124
300.224
300.328
300.435
300.547
300.664
300.785
300.912
301.044
301.182
301.326
301.477
301.634
301.799
301.971
302.149
302.33
302.513
302.694
302.875
303.063
303.26
303.47
303.698
303.956
304.261
304.633
305.092
305.665
306.385
307.291
308.425
309.818
311.476
313.383
315.459
317.548
319.394
320.577
321.123
321.392
321.535
321.175
320.963
320.594
320.081
319.252
318.011
316.173
313.628
310.35
306.584
302.388
297.881
295.215
293.733
293.2
293.162
293.152
293.15
293.15
293.15
293.15
293.15
293.15
293.15
293.15
293.15
293.15
293.15
293.15
293.15
293.15
293.15
293.15
293.15
293.15
293.15
293.15
293.15
293.15
293.15
293.15
293.15
293.15
293.15
293.15
293.15
293.15
293.15
293.15
293.15
293.15
293.15
293.15
293.15
293.15
293.15
293.15
293.15
293.15
293.15
293.15
293.15
293.15
293.15
293.15
293.15
293.15
293.15
293.15
293.15
293.15
293.15
293.15
293.15
293.15
293.15
293.15
293.15
293.15
293.15
293.15
293.15
293.15
293.15
293.15
293.15
293.15
299.202
299.114
299.068
299.008
298.955
298.904
298.854
298.807
298.763
298.72
298.679
298.641
298.603
298.567
298.532
298.498
298.464
298.431
298.398
298.366
298.334
298.304
298.275
298.249
298.226
298.207
298.193
298.186
298.183
298.186
298.199
298.219
298.245
298.279
298.319
298.364
298.414
298.469
298.528
298.59
298.656
298.725
298.796
298.87
298.945
299.021
299.098
299.175
299.252
299.328
299.403
299.479
299.555
299.632
299.71
299.788
299.867
299.948
300.032
300.119
300.209
300.305
300.407
300.517
300.635
300.764
300.905
301.059
301.226
301.408
301.604
301.813
302.038
302.277
302.532
302.804
303.096
303.412
303.743
304.08
304.422
304.77
305.129
305.492
305.86
306.254
306.71
307.268
307.976
308.878
310.015
311.422
313.066
314.917
316.885
318.834
320.54
321.708
322.3
322.53
322.636
322.699
322.752
322.894
322.922
322.944
322.756
322.453
321.854
320.753
318.786
315.552
310.814
305.264
299.345
295.327
293.625
293.198
293.159
293.151
293.15
293.15
293.15
293.15
293.15
293.15
293.15
293.15
293.15
293.15
293.15
293.15
293.15
293.15
293.15
293.15
293.15
293.15
293.15
293.15
293.15
293.15
293.15
293.15
293.15
293.15
293.15
293.15
293.15
293.15
293.15
293.15
293.15
293.15
293.15
293.15
293.15
293.15
293.15
293.15
293.15
293.15
293.15
293.15
293.15
293.15
293.15
293.15
293.15
293.15
293.15
293.15
293.15
293.15
293.15
293.15
293.15
293.15
293.15
293.15
293.15
293.15
293.15
293.15
293.15
293.15
293.15
299.258
299.174
299.129
299.071
299.02
298.97
298.923
298.877
298.834
298.794
298.755
298.718
298.683
298.649
298.617
298.585
298.555
298.525
298.496
298.468
298.44
298.415
298.391
298.37
298.352
298.338
298.327
298.323
298.321
298.325
298.338
298.356
298.382
298.413
298.45
298.491
298.536
298.585
298.637
298.692
298.75
298.81
298.871
298.935
298.999
299.064
299.129
299.194
299.257
299.321
299.385
299.448
299.511
299.574
299.637
299.7
299.764
299.829
299.896
299.964
300.036
300.112
300.193
300.28
300.376
300.481
300.598
300.729
300.877
301.045
301.237
301.455
301.707
301.995
302.325
302.699
303.119
303.592
304.128
304.744
305.462
306.292
307.217
308.239
309.345
310.499
311.672
312.83
313.947
314.997
316.007
317.004
317.993
318.965
319.902
320.763
321.508
322.117
322.567
322.828
322.945
322.991
323.01
322.985
323.041
323.114
323.121
323.123
323.131
323.124
323.083
322.942
322.103
320.344
316.907
311.248
304.233
297.34
294.419
293.26
293.168
293.152
293.15
293.15
293.15
293.15
293.15
293.15
293.15
293.15
293.15
293.15
293.15
293.15
293.15
293.15
293.15
293.15
293.15
293.15
293.15
293.15
293.15
293.15
293.15
293.15
293.15
293.15
293.15
293.15
293.15
293.15
293.15
293.15
293.15
293.15
293.15
293.15
293.15
293.15
293.15
293.15
293.15
293.15
293.15
293.15
293.15
293.15
293.15
293.15
293.15
293.15
293.15
293.15
293.15
293.15
293.15
293.15
293.15
293.15
293.15
293.15
293.15
293.15
293.15
293.15
293.15
299.314
299.233
299.189
299.133
299.083
299.035
298.989
298.945
298.903
298.864
298.827
298.792
298.758
298.727
298.696
298.667
298.639
298.612
298.586
298.561
298.538
298.516
298.496
298.478
298.464
298.454
298.446
298.444
298.441
298.445
298.455
298.472
298.495
298.523
298.556
298.593
298.633
298.676
298.721
298.769
298.819
298.871
298.924
298.978
299.033
299.088
299.143
299.198
299.251
299.305
299.358
299.411
299.463
299.515
299.567
299.618
299.669
299.721
299.773
299.826
299.881
299.939
299.999
300.064
300.134
300.212
300.298
300.395
300.507
300.636
300.787
300.964
301.173
301.423
301.724
302.089
302.535
303.086
303.772
304.626
305.687
307.007
308.646
310.66
313.073
315.762
318.484
320.651
321.75
322.154
322.322
322.487
322.636
322.768
322.876
322.963
323.028
323.073
323.101
323.119
323.128
323.133
323.135
323.137
323.135
323.138
323.139
323.14
323.148
323.149
323.149
323.145
323.134
323.11
323.039
322.494
319.967
315.348
307.855
299.568
294.929
293.305
293.174
293.152
293.15
293.15
293.15
293.15
293.15
293.15
293.15
293.15
293.15
293.15
293.15
293.15
293.15
293.15
293.15
293.15
293.15
293.15
293.15
293.15
293.15
293.15
293.15
293.15
293.15
293.15
293.15
293.15
293.15
293.15
293.15
293.15
293.15
293.15
293.15
293.15
293.15
293.15
293.15
293.15
293.15
293.15
293.15
293.15
293.15
293.15
293.15
293.15
293.15
293.15
293.15
293.15
293.15
293.15
293.15
293.15
293.15
293.15
293.15
293.15
293.15
293.15
293.15
299.366
299.288
299.245
299.19
299.142
299.094
299.049
299.007
298.966
298.928
298.892
298.858
298.826
298.796
298.767
298.74
298.714
298.689
298.665
298.643
298.622
298.603
298.586
298.571
298.56
298.555
298.547
298.546
298.541
298.544
298.553
298.567
298.587
298.612
298.641
298.674
298.709
298.747
298.787
298.829
298.873
298.917
298.963
299.01
299.057
299.104
299.152
299.199
299.245
299.291
299.336
299.381
299.425
299.468
299.511
299.554
299.596
299.638
299.68
299.722
299.765
299.81
299.856
299.904
299.955
300.011
300.072
300.141
300.219
300.309
300.414
300.539
300.689
300.871
301.096
301.374
301.724
302.167
302.736
303.476
304.447
305.736
307.466
309.759
312.652
316.023
319.402
321.83
322.695
322.908
322.978
323.031
323.073
323.107
323.119
323.131
323.138
323.143
323.146
323.147
323.148
323.149
323.149
323.149
323.149
323.149
323.149
323.149
323.15
323.15
323.15
323.15
323.15
323.149
323.148
323.14
323.103
322.96
321.654
316.992
309.155
299.762
294.852
293.307
293.171
293.152
293.15
293.15
293.15
293.15
293.15
293.15
293.15
293.15
293.15
293.15
293.15
293.15
293.15
293.15
293.15
293.15
293.15
293.15
293.15
293.15
293.15
293.15
293.15
293.15
293.15
293.15
293.15
293.15
293.15
293.15
293.15
293.15
293.15
293.15
293.15
293.15
293.15
293.15
293.15
293.15
293.15
293.15
293.15
293.15
293.15
293.15
293.15
293.15
293.15
293.15
293.15
293.15
293.15
293.15
293.15
293.15
293.15
293.15
293.15
293.15
293.15
299.413
299.336
299.294
299.24
299.193
299.146
299.102
299.06
299.021
298.983
298.948
298.915
298.884
298.855
298.827
298.801
298.777
298.754
298.732
298.712
298.693
298.676
298.661
298.649
298.639
298.637
298.629
298.628
298.624
298.624
298.63
298.643
298.66
298.682
298.708
298.737
298.768
298.802
298.838
298.875
298.914
298.953
298.994
299.035
299.076
299.117
299.159
299.2
299.24
299.28
299.32
299.359
299.397
299.434
299.471
299.508
299.544
299.579
299.615
299.65
299.685
299.721
299.757
299.795
299.834
299.876
299.921
299.971
300.026
300.088
300.16
300.245
300.347
300.47
300.622
300.811
301.05
301.355
301.75
302.264
302.943
303.842
305.04
306.632
308.719
311.378
314.588
318.082
321.228
322.526
322.917
323.028
323.081
323.121
323.136
323.143
323.147
323.148
323.149
323.15
323.15
323.15
323.15
323.15
323.15
323.15
323.15
323.15
323.15
323.15
323.15
323.15
323.15
323.15
323.15
323.15
323.149
323.147
323.128
323.013
322.033
317
308.425
298.433
294.351
293.272
293.163
293.152
293.15
293.15
293.15
293.15
293.15
293.15
293.15
293.15
293.15
293.15
293.15
293.15
293.15
293.15
293.15
293.15
293.15
293.15
293.15
293.15
293.15
293.15
293.15
293.15
293.15
293.15
293.15
293.15
293.15
293.15
293.15
293.15
293.15
293.15
293.15
293.15
293.15
293.15
293.15
293.15
293.15
293.15
293.15
293.15
293.15
293.15
293.15
293.15
293.15
293.15
293.15
293.15
293.15
293.15
293.15
293.15
293.15
293.15
293.15
299.451
299.377
299.336
299.282
299.236
299.19
299.146
299.105
299.066
299.029
298.994
298.962
298.932
298.903
298.877
298.852
298.828
298.807
298.787
298.768
298.751
298.735
298.721
298.71
298.702
298.702
298.693
298.692
298.688
298.687
298.691
298.702
298.718
298.737
298.76
298.786
298.814
298.845
298.877
298.91
298.945
298.981
299.017
299.054
299.091
299.128
299.165
299.202
299.238
299.274
299.309
299.344
299.378
299.411
299.444
299.476
299.508
299.539
299.57
299.6
299.631
299.661
299.692
299.723
299.755
299.788
299.823
299.86
299.901
299.947
299.998
300.058
300.128
300.212
300.314
300.441
300.601
300.804
301.065
301.403
301.844
302.423
303.186
304.195
305.522
307.252
309.447
312.06
314.833
317.365
319.222
320.419
321.424
322.428
322.907
323.06
323.124
323.145
323.149
323.15
323.15
323.15
323.15
323.15
323.15
323.15
323.15
323.15
323.15
323.15
323.15
323.15
323.15
323.15
323.15
323.15
323.15
323.15
323.15
323.148
323.131
322.979
321.782
315.982
306.22
296.739
293.626
293.223
293.162
293.152
293.15
293.15
293.15
293.15
293.15
293.15
293.15
293.15
293.15
293.15
293.15
293.15
293.15
293.15
293.15
293.15
293.15
293.15
293.15
293.15
293.15
293.15
293.15
293.15
293.15
293.15
293.15
293.15
293.15
293.15
293.15
293.15
293.15
293.15
293.15
293.15
293.15
293.15
293.15
293.15
293.15
293.15
293.15
293.15
293.15
293.15
293.15
293.15
293.15
293.15
293.15
293.15
293.15
293.15
293.15
293.15
293.15
299.482
299.408
299.368
299.315
299.269
299.224
299.181
299.14
299.101
299.065
299.031
298.999
298.969
298.941
298.915
298.891
298.869
298.848
298.829
298.811
298.795
298.781
298.768
298.758
298.75
298.75
298.741
298.741
298.736
298.737
298.737
298.748
298.762
298.779
298.8
298.823
298.849
298.877
298.907
298.937
298.969
299.002
299.035
299.068
299.102
299.136
299.17
299.204
299.237
299.27
299.302
299.334
299.365
299.395
299.425
299.454
299.483
299.511
299.539
299.566
299.593
299.62
299.647
299.674
299.701
299.729
299.758
299.789
299.821
299.856
299.895
299.939
299.99
300.05
300.121
300.21
300.32
300.459
300.636
300.865
301.161
301.544
302.041
302.68
303.495
304.518
305.772
307.239
308.824
310.358
311.603
312.617
313.865
315.502
317.841
320.734
322.404
323.022
323.13
323.146
323.149
323.15
323.15
323.15
323.15
323.15
323.15
323.15
323.15
323.15
323.15
323.15
323.15
323.15
323.15
323.15
323.15
323.15
323.15
323.15
323.15
323.147
323.112
322.773
319.974
311.441
299.918
294.711
293.462
293.214
293.164
293.154
293.151
293.15
293.15
293.15
293.15
293.15
293.15
293.15
293.15
293.15
293.15
293.15
293.15
293.15
293.15
293.15
293.15
293.15
293.15
293.15
293.15
293.15
293.15
293.15
293.15
293.15
293.15
293.15
293.15
293.15
293.15
293.15
293.15
293.15
293.15
293.15
293.15
293.15
293.15
293.15
293.15
293.15
293.15
293.15
293.15
293.15
293.15
293.15
293.15
293.15
293.15
293.15
293.15
293.15
293.15
299.503
299.431
299.391
299.339
299.293
299.248
299.206
299.165
299.127
299.091
299.057
299.026
298.997
298.969
298.944
298.92
298.899
298.879
298.86
298.843
298.828
298.815
298.803
298.794
298.786
298.785
298.777
298.777
298.772
298.772
298.771
298.783
298.795
298.811
298.83
298.851
298.875
298.901
298.928
298.957
298.987
299.017
299.048
299.079
299.111
299.142
299.174
299.205
299.236
299.267
299.297
299.326
299.355
299.384
299.411
299.439
299.465
299.491
299.517
299.542
299.567
299.591
299.616
299.64
299.664
299.689
299.714
299.74
299.767
299.796
299.828
299.862
299.901
299.947
300
300.064
300.144
300.244
300.371
300.534
300.744
301.016
301.364
301.807
302.36
303.039
303.846
304.763
305.75
306.733
307.607
308.234
308.425
308.412
309.285
311.879
315.938
320.87
322.876
323.119
323.148
323.15
323.15
323.15
323.15
323.15
323.15
323.15
323.15
323.15
323.15
323.15
323.15
323.15
323.15
323.15
323.15
323.15
323.15
323.15
323.15
323.15
323.149
323.137
322.984
321.525
314.179
302.457
295.899
293.878
293.344
293.209
293.172
293.159
293.154
293.151
293.15
293.15
293.15
293.15
293.15
293.15
293.15
293.15
293.15
293.15
293.15
293.15