/*--------------------------------*- C++ -*----------------------------------*\
| =========                 |                                                 |
| \\      /  F ield         | OpenFOAM: The Open Source CFD Toolbox           |
|  \\    /   O peration     | Version:  2406                                  |
|   \\  /    A nd           | Website:  www.openfoam.com                      |
|    \\/     M anipulation  |                                                 |
\*---------------------------------------------------------------------------*/
FoamFile
{
    version     2.0;
    format      ascii;
    arch        "LSB;label=32;scalar=64";
    class       volVectorField;
    location    "600";
    object      U;
}
// * * * * * * * * * * * * * * * * * * * * * * * * * * * * * * * * * * * * * //

dimensions      [0 1 -1 0 0 0 0];

internalField   nonuniform List<vector> 
5619
(
(1.9851 -0.000231785 0)
(2.01309 -0.00036434 0)
(2.0369 -0.00037424 0)
(2.06146 -0.00038448 0)
(2.08528 -0.000396077 0)
(2.10906 -0.000412501 0)
(2.13295 -0.000433877 0)
(2.15719 -0.000460163 0)
(2.18194 -0.000491125 0)
(2.20734 -0.000526709 0)
(2.23349 -0.000567131 0)
(2.26046 -0.000612944 0)
(2.28835 -0.000665003 0)
(2.31728 -0.000724416 0)
(2.34737 -0.00079249 0)
(2.37878 -0.000870641 0)
(2.41168 -0.000960344 0)
(2.44624 -0.00106304 0)
(2.48267 -0.00118009 0)
(2.52116 -0.00131266 0)
(2.56189 -0.00146161 0)
(2.60505 -0.00162747 0)
(2.65078 -0.00181025 0)
(2.69921 -0.00200938 0)
(2.75042 -0.00222357 0)
(2.80443 -0.00245077 0)
(2.86123 -0.00268816 0)
(2.92072 -0.00293209 0)
(2.98274 -0.00317827 0)
(3.04707 -0.00342189 0)
(3.11343 -0.00365784 0)
(3.18147 -0.00388097 0)
(3.25081 -0.00408651 0)
(3.321 -0.00427028 0)
(3.39161 -0.00442884 0)
(3.46217 -0.00455957 0)
(3.5322 -0.00466039 0)
(3.60123 -0.00472935 0)
(3.66879 -0.00476407 0)
(3.7344 -0.00476114 0)
(3.79755 -0.00471553 0)
(3.85774 -0.00462018 0)
(3.91442 -0.00446598 0)
(3.96699 -0.0042419 0)
(4.01485 -0.00393527 0)
(4.05735 -0.00353231 0)
(4.09381 -0.00301881 0)
(4.12354 -0.00238073 0)
(4.14588 -0.00160468 0)
(4.16015 -0.000677642 0)
(4.16573 0.000417767 0)
(4.16202 0.00172913 0)
(4.14802 0.0033167 0)
(4.1227 0.005207 0)
(4.08512 0.00741268 0)
(4.03439 0.00995642 0)
(3.96971 0.0128643 0)
(3.89032 0.0161631 0)
(3.79551 0.0198797 0)
(3.68465 0.0240394 0)
(3.5572 0.0286624 0)
(3.41274 0.0337561 0)
(3.25103 0.0393024 0)
(3.0721 0.0452314 0)
(2.87645 0.0513711 0)
(2.66538 0.0573507 0)
(2.44153 0.0624294 0)
(2.20996 0.0652267 0)
(1.97976 0.0634332 0)
(1.76608 0.0539848 0)
(1.59103 0.0351123 0)
(1.47929 0.011356 0)
(1.44189 -0.00540656 0)
(1.45605 -0.00940818 0)
(1.48063 -0.00782999 0)
(1.50016 -0.00613443 0)
(1.51616 -0.00521604 0)
(1.53004 -0.00468214 0)
(1.54242 -0.00440003 0)
(1.55349 -0.0041858 0)
(1.56337 -0.00393373 0)
(1.57211 -0.00364638 0)
(1.57976 -0.00334501 0)
(1.58635 -0.00304261 0)
(1.59192 -0.00274233 0)
(1.59653 -0.00244188 0)
(1.60022 -0.00213946 0)
(1.60303 -0.00183481 0)
(1.60503 -0.00152858 0)
(1.60624 -0.00122189 0)
(1.60672 -0.000914112 0)
(1.60649 -0.000591858 0)
(1.60556 -0.00024052 0)
(1.60393 0.000131209 0)
(1.60161 0.00050706 0)
(1.59863 0.000879538 0)
(1.595 0.00124483 0)
(1.59076 0.00160108 0)
(1.58591 0.00194982 0)
(1.58027 0.00229463 0)
(1.57405 0.002613 0)
(1.56629 0.00291041 0)
(1.55714 0.00320153 0)
(1.54639 0.0034858 0)
(1.53395 0.0037619 0)
(1.51972 0.00402589 0)
(1.50368 0.00427279 0)
(1.48584 0.00449709 0)
(1.46631 0.00469356 0)
(1.44525 0.00485787 0)
(1.42289 0.00498709 0)
(1.39953 0.00507989 0)
(1.37551 0.00513665 0)
(1.35118 0.0051596 0)
(1.32692 0.00515251 0)
(1.30306 0.00512013 0)
(1.2799 0.00506772 0)
(1.2577 0.00500078 0)
(1.23665 0.00492483 0)
(1.2169 0.00484498 0)
(1.19852 0.00476565 0)
(1.18154 0.00469034 0)
(1.16597 0.00462177 0)
(1.15177 0.00456203 0)
(1.13887 0.00451246 0)
(1.12723 0.00447355 0)
(1.11678 0.0044465 0)
(1.10722 0.00443379 0)
(1.0984 0.00442015 0)
(1.08951 0.00439221 0)
(1.08066 0.00435796 0)
(1.07178 0.00431814 0)
(1.06284 0.00427354 0)
(1.0538 0.00422436 0)
(1.04463 0.00417067 0)
(1.03529 0.00411251 0)
(1.02577 0.00404981 0)
(1.01602 0.00398248 0)
(1.00603 0.00391039 0)
(0.995771 0.00383334 0)
(0.985227 0.00375114 0)
(0.974382 0.00366365 0)
(0.963223 0.0035707 0)
(0.951745 0.00347211 0)
(0.939946 0.0033677 0)
(0.92783 0.00325728 0)
(0.915409 0.00314077 0)
(0.902702 0.00301815 0)
(0.889736 0.00288951 0)
(0.876546 0.00275501 0)
(0.863178 0.00261488 0)
(0.849685 0.00246948 0)
(0.836132 0.00231931 0)
(0.822592 0.00216504 0)
(0.809148 0.00200749 0)
(0.795891 0.00184761 0)
(0.782918 0.00168649 0)
(0.770334 0.00152537 0)
(0.758243 0.00136567 0)
(0.746752 0.0012089 0)
(0.735963 0.00105666 0)
(0.725973 0.000910533 0)
(0.716865 0.000772006 0)
(0.708713 0.000642433 0)
(0.70157 0.000522988 0)
(0.695474 0.000414607 0)
(0.690439 0.000317909 0)
(0.686464 0.000233149 0)
(0.683528 0.000160197 0)
(0.681598 9.84819e-05 0)
(0.680634 4.67534e-05 0)
(0.680598 5.33828e-06 0)
(0.681391 -2.4073e-05 0)
(0.682906 -4.38233e-05 0)
(0.685122 -5.73182e-05 0)
(0.688057 -6.5488e-05 0)
(0.691781 -6.89765e-05 0)
(0.696452 -6.76739e-05 0)
(0.702363 -5.9126e-05 0)
(0.710015 -3.39057e-05 0)
(0.720206 3.68075e-05 0)
(0.734134 0.000233181 0)
(0.753445 0.000768917 0)
(0.78021 0.00221551 0)
(0.816923 0.00618178 0)
(0.866431 0.0176118 0)
(0.926668 0.0544988 0)
(2.21646 -0.000615649 0)
(2.24027 -0.00102989 0)
(2.25964 -0.00103953 0)
(2.27971 -0.00107616 0)
(2.29902 -0.00111247 0)
(2.31836 -0.00116731 0)
(2.33792 -0.00123779 0)
(2.35801 -0.00132402 0)
(2.37883 -0.00142435 0)
(2.4005 -0.00153803 0)
(2.42315 -0.00166504 0)
(2.44684 -0.00180642 0)
(2.47168 -0.00196416 0)
(2.49776 -0.00214103 0)
(2.5252 -0.00234038 0)
(2.55414 -0.00256597 0)
(2.58476 -0.00282172 0)
(2.61722 -0.00311163 0)
(2.65171 -0.00343951 0)
(2.68843 -0.0038089 0)
(2.72757 -0.00422274 0)
(2.76931 -0.00468328 0)
(2.81381 -0.00519176 0)
(2.86121 -0.00574819 0)
(2.91159 -0.00635108 0)
(2.96504 -0.00699728 0)
(3.02154 -0.00768185 0)
(3.08105 -0.00839801 0)
(3.14346 -0.00913716 0)
(3.2086 -0.00988918 0)
(3.27623 -0.0106425 0)
(3.34605 -0.0113848 0)
(3.4177 -0.0121029 0)
(3.49078 -0.0127837 0)
(3.56481 -0.0134139 0)
(3.63929 -0.0139801 0)
(3.71369 -0.0144687 0)
(3.78743 -0.0148654 0)
(3.85993 -0.015154 0)
(3.93059 -0.0153164 0)
(3.99877 -0.0153313 0)
(4.06385 -0.0151739 0)
(4.1252 -0.014816 0)
(4.18215 -0.0142258 0)
(4.23407 -0.0133685 0)
(4.28027 -0.0122072 0)
(4.32011 -0.0107039 0)
(4.35291 -0.0088205 0)
(4.37802 -0.00651952 0)
(4.3948 -0.00376425 0)
(4.40259 -0.000512175 0)
(4.40076 0.00332655 0)
(4.38877 0.00787258 0)
(4.36595 0.0132087 0)
(4.33157 0.0193824 0)
(4.28491 0.0264438 0)
(4.22535 0.0344468 0)
(4.15231 0.0434444 0)
(4.06528 0.0534844 0)
(3.96384 0.0646053 0)
(3.84769 0.0768276 0)
(3.71664 0.0901379 0)
(3.57074 0.104462 0)
(3.41029 0.119617 0)
(3.23602 0.135223 0)
(3.04926 0.150543 0)
(2.85223 0.164202 0)
(2.64841 0.173739 0)
(2.44289 0.175061 0)
(2.24258 0.162287 0)
(2.05618 0.129626 0)
(1.89466 0.0777228 0)
(1.77377 0.0221531 0)
(1.71054 -0.0121832 0)
(1.70038 -0.0196824 0)
(1.71185 -0.017301 0)
(1.72537 -0.0153032 0)
(1.73756 -0.0141904 0)
(1.74825 -0.012996 0)
(1.75768 -0.0117904 0)
(1.76586 -0.0106729 0)
(1.77281 -0.0095983 0)
(1.77857 -0.00849406 0)
(1.78322 -0.0073433 0)
(1.78682 -0.00616109 0)
(1.78943 -0.00496562 0)
(1.79111 -0.00377299 0)
(1.7919 -0.00259355 0)
(1.79187 -0.00143193 0)
(1.79104 -0.000287729 0)
(1.78947 0.000844954 0)
(1.78718 0.0019717 0)
(1.78421 0.00309382 0)
(1.78062 0.00420353 0)
(1.77645 0.00529048 0)
(1.77172 0.00635018 0)
(1.76646 0.00738064 0)
(1.76068 0.00838107 0)
(1.7544 0.00935414 0)
(1.74742 0.0103044 0)
(1.73992 0.0112089 0)
(1.73083 0.0120902 0)
(1.72029 0.0129528 0)
(1.70809 0.013789 0)
(1.69414 0.0145893 0)
(1.67837 0.0153407 0)
(1.66077 0.0160288 0)
(1.64137 0.0166383 0)
(1.62029 0.0171554 0)
(1.59771 0.0175694 0)
(1.57388 0.0178735 0)
(1.54911 0.0180661 0)
(1.52375 0.0181507 0)
(1.49816 0.0181352 0)
(1.47271 0.0180317 0)
(1.44774 0.0178547 0)
(1.42355 0.0176207 0)
(1.40041 0.0173462 0)
(1.37851 0.0170472 0)
(1.35798 0.0167382 0)
(1.3389 0.0164313 0)
(1.32132 0.0161365 0)
(1.30523 0.015861 0)
(1.29058 0.01561 0)
(1.27731 0.0153866 0)
(1.26537 0.0151918 0)
(1.25469 0.0150266 0)
(1.24497 0.0148926 0)
(1.23605 0.0147744 0)
(1.2271 0.0146396 0)
(1.2182 0.0144931 0)
(1.20928 0.014335 0)
(1.20031 0.0141652 0)
(1.19124 0.0139832 0)
(1.18205 0.0137883 0)
(1.17269 0.0135796 0)
(1.16315 0.0133565 0)
(1.15338 0.013118 0)
(1.14337 0.0128634 0)
(1.13309 0.0125919 0)
(1.12252 0.0123028 0)
(1.11165 0.0119953 0)
(1.10047 0.0116689 0)
(1.08896 0.0113231 0)
(1.07714 0.0109576 0)
(1.06499 0.010572 0)
(1.05255 0.0101666 0)
(1.03983 0.00974154 0)
(1.02685 0.00929743 0)
(1.01365 0.00883513 0)
(1.00028 0.00835585 0)
(0.986805 0.00786123 0)
(0.973278 0.00735338 0)
(0.959779 0.00683485 0)
(0.946393 0.00630864 0)
(0.933213 0.00577819 0)
(0.920339 0.00524734 0)
(0.907876 0.00472035 0)
(0.895933 0.00420185 0)
(0.884619 0.00369665 0)
(0.874039 0.00320963 0)
(0.864294 0.00274548 0)
(0.855472 0.00230853 0)
(0.84765 0.00190257 0)
(0.840889 0.0015307 0)
(0.835232 0.00119508 0)
(0.830702 0.000896739 0)
(0.827307 0.000635502 0)
(0.825038 0.000409879 0)
(0.823873 0.000217031 0)
(0.823786 5.3259e-05 0)
(0.824752 -7.86807e-05 0)
(0.826625 -0.000181487 0)
(0.829437 -0.000267847 0)
(0.833201 -0.000346402 0)
(0.837967 -0.000424766 0)
(0.843832 -0.000511905 0)
(0.850936 -0.000619354 0)
(0.85947 -0.00076322 0)
(0.869656 -0.000968297 0)
(0.881715 -0.00127746 0)
(0.895819 -0.00177438 0)
(0.912014 -0.00263962 0)
(0.930146 -0.00428661 0)
(0.949847 -0.00766949 0)
(0.970489 -0.0149681 0)
(0.988465 -0.0293062 0)
(2.29694 -0.00103531 0)
(2.31809 -0.00174359 0)
(2.33478 -0.00173224 0)
(2.35222 -0.00179213 0)
(2.36898 -0.00184785 0)
(2.38587 -0.00194218 0)
(2.40309 -0.00206722 0)
(2.42095 -0.00222352 0)
(2.43965 -0.00240722 0)
(2.45931 -0.00261652 0)
(2.48003 -0.00285095 0)
(2.50189 -0.00311219 0)
(2.52496 -0.00340375 0)
(2.54934 -0.00373075 0)
(2.57512 -0.00409947 0)
(2.60244 -0.004517 0)
(2.63145 -0.00499083 0)
(2.66231 -0.00552861 0)
(2.6952 -0.00613775 0)
(2.73031 -0.00682525 0)
(2.76781 -0.00759718 0)
(2.80788 -0.00845846 0)
(2.85068 -0.00941232 0)
(2.89634 -0.01046 0)
(2.94496 -0.0116 0)
(2.99662 -0.0128283 0)
(3.05133 -0.0141374 0)
(3.10906 -0.0155167 0)
(3.16973 -0.0169518 0)
(3.2332 -0.0184255 0)
(3.29927 -0.0199171 0)
(3.36766 -0.0214034 0)
(3.43807 -0.022859 0)
(3.51011 -0.0242565 0)
(3.58335 -0.0255672 0)
(3.65731 -0.0267611 0)
(3.73146 -0.0278068 0)
(3.80524 -0.0286711 0)
(3.87805 -0.0293186 0)
(3.94928 -0.0297106 0)
(4.01829 -0.0298048 0)
(4.08444 -0.0295541 0)
(4.14707 -0.0289063 0)
(4.20551 -0.0278044 0)
(4.25912 -0.0261867 0)
(4.30722 -0.0239875 0)
(4.34918 -0.0211387 0)
(4.38434 -0.0175703 0)
(4.41207 -0.0132118 0)
(4.43179 -0.00799126 0)
(4.44289 -0.00183305 0)
(4.44485 0.00535746 0)
(4.43721 0.0137334 0)
(4.4195 0.0234703 0)
(4.39111 0.0346817 0)
(4.35147 0.047451 0)
(4.30006 0.061861 0)
(4.23644 0.0779867 0)
(4.16026 0.095888 0)
(4.07126 0.1156 0)
(3.96932 0.137113 0)
(3.85449 0.16035 0)
(3.72701 0.185113 0)
(3.58742 0.211017 0)
(3.43664 0.237359 0)
(3.27604 0.262943 0)
(3.10756 0.285803 0)
(2.93367 0.302872 0)
(2.75716 0.309698 0)
(2.58058 0.300539 0)
(2.40557 0.269462 0)
(2.23375 0.21314 0)
(2.07088 0.135545 0)
(1.93326 0.0535597 0)
(1.84443 -0.00518281 0)
(1.81049 -0.0270759 0)
(1.80903 -0.0273561 0)
(1.81669 -0.0241058 0)
(1.82523 -0.0221194 0)
(1.8325 -0.0204572 0)
(1.83858 -0.0183784 0)
(1.84372 -0.0160484 0)
(1.84795 -0.0136671 0)
(1.85122 -0.0113276 0)
(1.85352 -0.00904043 0)
(1.85491 -0.00678246 0)
(1.85544 -0.0045424 0)
(1.85516 -0.00231957 0)
(1.85413 -0.000116288 0)
(1.8524 0.00206535 0)
(1.85001 0.00421932 0)
(1.847 0.00633306 0)
(1.84342 0.00839215 0)
(1.83931 0.0103927 0)
(1.83467 0.0123364 0)
(1.82953 0.0142245 0)
(1.82391 0.0160574 0)
(1.81783 0.0178355 0)
(1.81128 0.0195583 0)
(1.80409 0.0212253 0)
(1.79638 0.0228292 0)
(1.7871 0.0244231 0)
(1.7764 0.0259919 0)
(1.76408 0.0275183 0)
(1.75006 0.0289793 0)
(1.73427 0.0303485 0)
(1.7167 0.031597 0)
(1.69741 0.032696 0)
(1.67651 0.0336196 0)
(1.65418 0.0343476 0)
(1.63068 0.0348679 0)
(1.60632 0.0351782 0)
(1.58143 0.0352857 0)
(1.55637 0.0352062 0)
(1.5315 0.0349628 0)
(1.50715 0.0345834 0)
(1.48361 0.0340988 0)
(1.46112 0.03354 0)
(1.43986 0.0329366 0)
(1.41997 0.0323152 0)
(1.40152 0.031698 0)
(1.38454 0.031103 0)
(1.36901 0.0305435 0)
(1.35489 0.0300284 0)
(1.34213 0.0295625 0)
(1.33065 0.0291472 0)
(1.3204 0.0287816 0)
(1.31108 0.0284632 0)
(1.30253 0.0281876 0)
(1.29396 0.0279027 0)
(1.28545 0.0276051 0)
(1.27692 0.0272924 0)
(1.26835 0.0269625 0)
(1.25969 0.0266129 0)
(1.25092 0.0262415 0)
(1.242 0.0258461 0)
(1.2329 0.0254246 0)
(1.22359 0.0249747 0)
(1.21406 0.0244946 0)
(1.20428 0.0239824 0)
(1.19423 0.0234363 0)
(1.1839 0.0228547 0)
(1.17328 0.0222362 0)
(1.16237 0.0215797 0)
(1.15116 0.0208844 0)
(1.13966 0.0201499 0)
(1.12788 0.0193762 0)
(1.11586 0.0185639 0)
(1.1036 0.0177141 0)
(1.09116 0.0168285 0)
(1.07857 0.0159095 0)
(1.0659 0.0149604 0)
(1.0532 0.0139852 0)
(1.04055 0.0129889 0)
(1.02802 0.0119774 0)
(1.01572 0.0109572 0)
(1.00373 0.0099359 0)
(0.992159 0.00892179 0)
(0.981106 0.00792372 0)
(0.970676 0.0069509 0)
(0.960972 0.00601255 0)
(0.952088 0.00511759 0)
(0.944111 0.00427428 0)
(0.937115 0.0034899 0)
(0.931158 0.00277032 0)
(0.926281 0.00211965 0)
(0.922509 0.00153998 0)
(0.919845 0.00103119 0)
(0.918278 0.000591081 0)
(0.917779 0.000215742 0)
(0.91831 -9.74953e-05 0)
(0.919756 -0.000347993 0)
(0.922095 -0.000547412 0)
(0.925279 -0.000712823 0)
(0.929259 -0.000852639 0)
(0.933989 -0.000974539 0)
(0.939414 -0.0010847 0)
(0.945463 -0.00118744 0)
(0.952034 -0.00128393 0)
(0.958982 -0.00136912 0)
(0.966113 -0.00142519 0)
(0.973194 -0.00140802 0)
(0.979979 -0.00122363 0)
(0.986223 -0.000695687 0)
(0.991737 0.00044574 0)
(0.996402 0.00209066 0)
(0.998422 0.000152519 0)
(2.32985 -0.00154244 0)
(2.34937 -0.00260516 0)
(2.36452 -0.00256167 0)
(2.38043 -0.00265569 0)
(2.39572 -0.0027397 0)
(2.41118 -0.00288938 0)
(2.42701 -0.00308951 0)
(2.44352 -0.0033413 0)
(2.46088 -0.00363784 0)
(2.47923 -0.0039758 0)
(2.49866 -0.00435395 0)
(2.51922 -0.00477463 0)
(2.541 -0.00524323 0)
(2.56406 -0.00576774 0)
(2.58851 -0.00635807 0)
(2.61447 -0.00702547 0)
(2.64207 -0.00778184 0)
(2.67147 -0.00863936 0)
(2.70285 -0.00960989 0)
(2.73636 -0.0107046 0)
(2.77218 -0.0119335 0)
(2.81049 -0.0133047 0)
(2.85142 -0.0148237 0)
(2.8951 -0.0164934 0)
(2.94165 -0.0183125 0)
(2.99112 -0.0202758 0)
(3.04354 -0.0223731 0)
(3.0989 -0.0245892 0)
(3.15713 -0.0269036 0)
(3.21812 -0.0292907 0)
(3.28168 -0.0317197 0)
(3.34758 -0.034155 0)
(3.41555 -0.0365568 0)
(3.48524 -0.0388817 0)
(3.55625 -0.0410824 0)
(3.62815 -0.043109 0)
(3.70045 -0.0449081 0)
(3.77262 -0.0464231 0)
(3.8441 -0.0475936 0)
(3.9143 -0.0483546 0)
(3.9826 -0.048636 0)
(4.04838 -0.0483615 0)
(4.11099 -0.0474484 0)
(4.16978 -0.0458077 0)
(4.2241 -0.0433445 0)
(4.2733 -0.0399587 0)
(4.31674 -0.0355471 0)
(4.3538 -0.0300052 0)
(4.38388 -0.0232277 0)
(4.4064 -0.0151095 0)
(4.42085 -0.00554136 0)
(4.42673 0.00559327 0)
(4.42365 0.0184651 0)
(4.41131 0.0333312 0)
(4.38925 0.0503911 0)
(4.35705 0.0697661 0)
(4.31433 0.0915639 0)
(4.2608 0.115872 0)
(4.19628 0.142748 0)
(4.1207 0.172199 0)
(4.03415 0.20416 0)
(3.93688 0.238452 0)
(3.82935 0.274723 0)
(3.71228 0.312357 0)
(3.58662 0.350351 0)
(3.45358 0.387138 0)
(3.31455 0.420389 0)
(3.1709 0.446808 0)
(3.02363 0.462063 0)
(2.87295 0.461031 0)
(2.71796 0.438596 0)
(2.55726 0.391033 0)
(2.39089 0.317609 0)
(2.22391 0.222573 0)
(2.07007 0.118989 0)
(1.95043 0.0308509 0)
(1.87991 -0.019931 0)
(1.85264 -0.0348203 0)
(1.84891 -0.0326903 0)
(1.85345 -0.0278271 0)
(1.85961 -0.0243161 0)
(1.86485 -0.0215762 0)
(1.86885 -0.018579 0)
(1.87182 -0.015178 0)
(1.87395 -0.0115613 0)
(1.87532 -0.00788237 0)
(1.87592 -0.00423865 0)
(1.87578 -0.000674409 0)
(1.8749 0.0028007 0)
(1.87334 0.0061879 0)
(1.87113 0.00948636 0)
(1.86831 0.0126944 0)
(1.86492 0.0158149 0)
(1.86099 0.0188506 0)
(1.85653 0.0218035 0)
(1.85158 0.0246756 0)
(1.84613 0.0274686 0)
(1.84023 0.0301827 0)
(1.83385 0.0328162 0)
(1.82683 0.035364 0)
(1.81928 0.0378242 0)
(1.81019 0.0402728 0)
(1.79966 0.0426827 0)
(1.78754 0.0450263 0)
(1.77372 0.0472652 0)
(1.75816 0.0493556 0)
(1.74085 0.0512503 0)
(1.72184 0.0529031 0)
(1.70126 0.0542735 0)
(1.67932 0.0553308 0)
(1.65626 0.0560577 0)
(1.6324 0.056452 0)
(1.60807 0.056527 0)
(1.58364 0.0563097 0)
(1.55945 0.0558381 0)
(1.53583 0.0551571 0)
(1.51305 0.0543154 0)
(1.49134 0.0533621 0)
(1.47087 0.0523433 0)
(1.45176 0.0513002 0)
(1.43407 0.0502677 0)
(1.41782 0.0492735 0)
(1.403 0.048338 0)
(1.38954 0.0474748 0)
(1.37738 0.0466919 0)
(1.36647 0.045992 0)
(1.35672 0.0453735 0)
(1.34787 0.044832 0)
(1.33974 0.0443648 0)
(1.3316 0.0438887 0)
(1.32351 0.0433957 0)
(1.31541 0.0428821 0)
(1.30727 0.0423432 0)
(1.29906 0.0417752 0)
(1.29075 0.0411741 0)
(1.2823 0.0405361 0)
(1.27369 0.0398575 0)
(1.2649 0.0391349 0)
(1.25591 0.0383648 0)
(1.24668 0.0375444 0)
(1.23723 0.0366706 0)
(1.22752 0.0357412 0)
(1.21755 0.0347539 0)
(1.20732 0.0337071 0)
(1.19684 0.0325998 0)
(1.18611 0.0314314 0)
(1.17514 0.0302023 0)
(1.16396 0.0289135 0)
(1.1526 0.027567 0)
(1.1411 0.0261656 0)
(1.12948 0.0247134 0)
(1.11782 0.0232157 0)
(1.10616 0.0216791 0)
(1.09458 0.0201112 0)
(1.08315 0.0185213 0)
(1.07195 0.0169199 0)
(1.06107 0.0153186 0)
(1.05058 0.0137305 0)
(1.0406 0.0121693 0)
(1.03119 0.0106491 0)
(1.02244 0.00918453 0)
(1.01443 0.00778934 0)
(1.00723 0.00647657 0)
(1.00088 0.00525769 0)
(0.995417 0.00414206 0)
(0.990861 0.00313636 0)
(0.987205 0.00224417 0)
(0.984427 0.00146581 0)
(0.982482 0.000798353 0)
(0.981309 0.00023622 0)
(0.980831 -0.000225403 0)
(0.980989 -0.000593005 0)
(0.98171 -0.000882974 0)
(0.982899 -0.00111402 0)
(0.984464 -0.0012998 0)
(0.986314 -0.00145268 0)
(0.988358 -0.0015842 0)
(0.990512 -0.00170577 0)
(0.992694 -0.00182981 0)
(0.994823 -0.00197137 0)
(0.996827 -0.00215037 0)
(0.998634 -0.0023934 0)
(1.00017 -0.00273285 0)
(1.00137 -0.00319097 0)
(1.00217 -0.00368569 0)
(1.00262 -0.00388165 0)
(1.00123 -0.00420157 0)
(2.34066 -0.00214613 0)
(2.35875 -0.00362566 0)
(2.37266 -0.00354085 0)
(2.38733 -0.00367752 0)
(2.40144 -0.00379675 0)
(2.41573 -0.00401559 0)
(2.43041 -0.00430942 0)
(2.44575 -0.00468027 0)
(2.46193 -0.00511731 0)
(2.47908 -0.00561525 0)
(2.49726 -0.00617189 0)
(2.51655 -0.00679032 0)
(2.537 -0.00747818 0)
(2.55868 -0.00824702 0)
(2.5817 -0.00911121 0)
(2.60616 -0.0100871 0)
(2.63219 -0.011192 0)
(2.65993 -0.0124436 0)
(2.68954 -0.0138592 0)
(2.72118 -0.0154552 0)
(2.75501 -0.0172463 0)
(2.79118 -0.0192446 0)
(2.82984 -0.0214589 0)
(2.8711 -0.023894 0)
(2.91505 -0.0265493 0)
(2.96177 -0.0294187 0)
(3.01129 -0.0324892 0)
(3.06359 -0.035741 0)
(3.11862 -0.0391469 0)
(3.17629 -0.042672 0)
(3.23644 -0.0462739 0)
(3.29889 -0.0499032 0)
(3.36338 -0.0535034 0)
(3.42962 -0.0570119 0)
(3.49727 -0.06036 0)
(3.56594 -0.0634732 0)
(3.63519 -0.0662718 0)
(3.70456 -0.0686701 0)
(3.77354 -0.0705764 0)
(3.84157 -0.0718923 0)
(3.9081 -0.0725121 0)
(3.97252 -0.0723222 0)
(4.03422 -0.0712005 0)
(4.09258 -0.0690173 0)
(4.14695 -0.0656358 0)
(4.1967 -0.0609136 0)
(4.24122 -0.0547054 0)
(4.27989 -0.0468655 0)
(4.31214 -0.0372501 0)
(4.33743 -0.0257188 0)
(4.35526 -0.0121333 0)
(4.36523 0.00364517 0)
(4.36695 0.0217637 0)
(4.36026 0.0425314 0)
(4.34495 0.0662495 0)
(4.32073 0.0930773 0)
(4.28739 0.123129 0)
(4.24481 0.156478 0)
(4.19299 0.193139 0)
(4.13206 0.233047 0)
(4.06226 0.276027 0)
(3.98401 0.321746 0)
(3.8979 0.369658 0)
(3.80464 0.418921 0)
(3.70508 0.468304 0)
(3.6001 0.516082 0)
(3.4905 0.559939 0)
(3.37681 0.596912 0)
(3.25906 0.623431 0)
(3.13659 0.635505 0)
(3.00797 0.62909 0)
(2.87137 0.600591 0)
(2.72518 0.547421 0)
(2.5692 0.4687 0)
(2.40629 0.366474 0)
(2.24486 0.248133 0)
(2.09958 0.129831 0)
(1.98693 0.0348213 0)
(1.91541 -0.0204167 0)
(1.88028 -0.0395213 0)
(1.86844 -0.0390298 0)
(1.868 -0.0323876 0)
(1.87171 -0.0255445 0)
(1.87596 -0.0199246 0)
(1.87936 -0.0150283 0)
(1.88162 -0.0102254 0)
(1.88282 -0.00530652 0)
(1.88312 -0.000300423 0)
(1.88266 0.00472147 0)
(1.8815 0.00969491 0)
(1.87971 0.0145736 0)
(1.87729 0.0193317 0)
(1.8743 0.0239572 0)
(1.87074 0.0284471 0)
(1.86664 0.0328037 0)
(1.86201 0.0370328 0)
(1.85687 0.041141 0)
(1.85125 0.0451344 0)
(1.84512 0.0490168 0)
(1.83833 0.0527875 0)
(1.83095 0.056454 0)
(1.82201 0.0601073 0)
(1.81159 0.0636971 0)
(1.79952 0.0671771 0)
(1.78571 0.0704868 0)
(1.7701 0.0735582 0)
(1.75271 0.0763195 0)
(1.7336 0.0787018 0)
(1.71291 0.0806463 0)
(1.69085 0.0821099 0)
(1.66771 0.0830709 0)
(1.6438 0.0835304 0)
(1.61947 0.0835125 0)
(1.59511 0.0830613 0)
(1.57104 0.0822364 0)
(1.5476 0.0811074 0)
(1.52507 0.0797487 0)
(1.50365 0.0782342 0)
(1.48352 0.0766329 0)
(1.46478 0.0750061 0)
(1.44748 0.073405 0)
(1.43163 0.0718698 0)
(1.4172 0.0704302 0)
(1.40414 0.0691059 0)
(1.39236 0.0679081 0)
(1.3818 0.0668407 0)
(1.37238 0.0659017 0)
(1.36384 0.0650849 0)
(1.35599 0.0643825 0)
(1.34813 0.0636698 0)
(1.34033 0.0629331 0)
(1.33252 0.0621662 0)
(1.32467 0.0613625 0)
(1.31676 0.0605157 0)
(1.30875 0.0596198 0)
(1.30061 0.0586691 0)
(1.29232 0.057658 0)
(1.28386 0.0565814 0)
(1.27521 0.0554346 0)
(1.26635 0.0542132 0)
(1.25728 0.0529134 0)
(1.24797 0.0515318 0)
(1.23842 0.0500659 0)
(1.22864 0.0485139 0)
(1.21863 0.0468746 0)
(1.20839 0.0451481 0)
(1.19795 0.0433354 0)
(1.18733 0.0414386 0)
(1.17655 0.0394615 0)
(1.16565 0.0374089 0)
(1.15467 0.0352875 0)
(1.14365 0.0331056 0)
(1.13266 0.0308732 0)
(1.12176 0.0286024 0)
(1.11101 0.026307 0)
(1.10048 0.0240025 0)
(1.09024 0.0217061 0)
(1.08038 0.0194365 0)
(1.07096 0.0172134 0)
(1.06206 0.015057 0)
(1.05374 0.0129873 0)
(1.04606 0.0110239 0)
(1.03906 0.00918461 0)
(1.03278 0.00748489 0)
(1.02724 0.00593721 0)
(1.02244 0.00455013 0)
(1.01836 0.0033279 0)
(1.01498 0.00227015 0)
(1.01225 0.00137194 0)
(1.01011 0.000624049 0)
(1.0085 1.46595e-05 0)
(1.00735 -0.00046787 0)
(1.00661 -0.000840727 0)
(1.0062 -0.00112561 0)
(1.00604 -0.00134102 0)
(1.00606 -0.00150315 0)
(1.00619 -0.00162611 0)
(1.00638 -0.00172194 0)
(1.00658 -0.00180054 0)
(1.00674 -0.00186962 0)
(1.00682 -0.00193445 0)
(1.00677 -0.00199778 0)
(1.00653 -0.00206229 0)
(1.00605 -0.0021398 0)
(1.0053 -0.00224529 0)
(1.00433 -0.00245289 0)
(1.0019 -0.00352961 0)
(2.33673 -0.00285459 0)
(2.35325 -0.00481105 0)
(2.36584 -0.00467853 0)
(2.3792 -0.00486656 0)
(2.39205 -0.00502863 0)
(2.40511 -0.00533074 0)
(2.41853 -0.00573693 0)
(2.4326 -0.0062501 0)
(2.44746 -0.00685473 0)
(2.46322 -0.00754322 0)
(2.47996 -0.0083122 0)
(2.49772 -0.00916575 0)
(2.51658 -0.0101142 0)
(2.53659 -0.0111732 0)
(2.55784 -0.0123626 0)
(2.58043 -0.0137045 0)
(2.60447 -0.0152226 0)
(2.63011 -0.016941 0)
(2.65749 -0.0188835 0)
(2.68674 -0.0210723 0)
(2.71801 -0.0235276 0)
(2.75144 -0.0262662 0)
(2.78716 -0.0293007 0)
(2.82527 -0.0326383 0)
(2.86587 -0.0362797 0)
(2.90901 -0.0402178 0)
(2.95472 -0.0444375 0)
(3.00301 -0.0489144 0)
(3.05383 -0.0536141 0)
(3.10711 -0.0584928 0)
(3.16273 -0.0634964 0)
(3.22054 -0.0685608 0)
(3.28033 -0.0736124 0)
(3.34187 -0.0785683 0)
(3.40488 -0.0833367 0)
(3.46904 -0.0878167 0)
(3.53398 -0.0918985 0)
(3.5993 -0.0954631 0)
(3.66457 -0.0983819 0)
(3.7293 -0.100516 0)
(3.79298 -0.101715 0)
(3.85508 -0.101819 0)
(3.91501 -0.100656 0)
(3.97218 -0.0980459 0)
(4.026 -0.0937989 0)
(4.07585 -0.0877214 0)
(4.12112 -0.0796186 0)
(4.16125 -0.069298 0)
(4.19566 -0.0565743 0)
(4.22385 -0.0412726 0)
(4.24535 -0.0232299 0)
(4.2598 -0.0022982 0)
(4.26691 0.0216304 0)
(4.2665 0.0488307 0)
(4.25865 0.0796776 0)
(4.24326 0.114383 0)
(4.22029 0.153047 0)
(4.18978 0.195697 0)
(4.15186 0.242268 0)
(4.10679 0.292586 0)
(4.05493 0.346336 0)
(3.99674 0.403029 0)
(3.93277 0.461948 0)
(3.86364 0.522109 0)
(3.78996 0.582198 0)
(3.71226 0.640535 0)
(3.63094 0.695039 0)
(3.54607 0.743243 0)
(3.45738 0.782354 0)
(3.36413 0.809373 0)
(3.26513 0.821274 0)
(3.15889 0.815219 0)
(3.04374 0.78876 0)
(2.91825 0.740058 0)
(2.78158 0.668136 0)
(2.63438 0.573227 0)
(2.48015 0.457583 0)
(2.32662 0.327687 0)
(2.18542 0.19717 0)
(2.06863 0.0857258 0)
(1.98346 0.00995239 0)
(1.92955 -0.0275813 0)
(1.90048 -0.0380013 0)
(1.88776 -0.0347648 0)
(1.88419 -0.0263503 0)
(1.88462 -0.0170121 0)
(1.88628 -0.00833915 0)
(1.88776 -0.000500533 0)
(1.8885 0.00677955 0)
(1.88835 0.0137317 0)
(1.88732 0.0204743 0)
(1.88549 0.0270483 0)
(1.88295 0.0334645 0)
(1.87975 0.0397246 0)
(1.87594 0.0458301 0)
(1.87154 0.0517854 0)
(1.86659 0.0575976 0)
(1.86109 0.0632756 0)
(1.85506 0.0688279 0)
(1.84832 0.0742607 0)
(1.84092 0.0795942 0)
(1.83191 0.0849289 0)
(1.82132 0.090169 0)
(1.80899 0.0952313 0)
(1.79482 0.100019 0)
(1.77876 0.104426 0)
(1.76083 0.108347 0)
(1.74111 0.111684 0)
(1.71977 0.114355 0)
(1.69705 0.116307 0)
(1.67324 0.117517 0)
(1.64869 0.117994 0)
(1.62377 0.117781 0)
(1.59887 0.116948 0)
(1.57435 0.115586 0)
(1.55052 0.113799 0)
(1.52768 0.111695 0)
(1.50604 0.10938 0)
(1.48577 0.106955 0)
(1.46694 0.104506 0)
(1.44962 0.102106 0)
(1.4338 0.0998129 0)
(1.41945 0.0976685 0)
(1.40649 0.0957014 0)
(1.39484 0.0939281 0)
(1.38441 0.0923552 0)
(1.37514 0.0909808 0)
(1.36676 0.0897979 0)
(1.35905 0.0887899 0)
(1.35136 0.0877793 0)
(1.34371 0.0867406 0)
(1.33607 0.0856628 0)
(1.32839 0.0845355 0)
(1.32065 0.0833491 0)
(1.31281 0.0820943 0)
(1.30486 0.0807625 0)
(1.29676 0.0793453 0)
(1.28849 0.0778354 0)
(1.28003 0.0762257 0)
(1.27138 0.0745105 0)
(1.26251 0.0726845 0)
(1.25342 0.0707436 0)
(1.2441 0.0686849 0)
(1.23456 0.0665065 0)
(1.2248 0.0642078 0)
(1.21483 0.0617899 0)
(1.20467 0.0592551 0)
(1.19434 0.0566077 0)
(1.18387 0.0538538 0)
(1.17329 0.0510014 0)
(1.16265 0.0480608 0)
(1.15198 0.0450443 0)
(1.14135 0.0419669 0)
(1.13081 0.0388459 0)
(1.12043 0.0357006 0)
(1.11026 0.0325531 0)
(1.10038 0.029427 0)
(1.09085 0.0263478 0)
(1.08175 0.0233419 0)
(1.07313 0.0204362 0)
(1.06505 0.0176572 0)
(1.05756 0.01503 0)
(1.0507 0.0125774 0)
(1.04449 0.0103187 0)
(1.03895 0.00826906 0)
(1.03407 0.0064383 0)
(1.02984 0.00483058 0)
(1.02624 0.00344407 0)
(1.02321 0.00227114 0)
(1.0207 0.00129883 0)
(1.01867 0.000509624 0)
(1.01703 -0.000116405 0)
(1.01574 -0.000600345 0)
(1.01472 -0.000967181 0)
(1.01391 -0.00124171 0)
(1.01325 -0.00144585 0)
(1.01269 -0.00159911 0)
(1.01216 -0.00171874 0)
(1.01165 -0.0018199 0)
(1.01109 -0.00191597 0)
(1.01046 -0.00201826 0)
(1.00971 -0.00213439 0)
(1.00881 -0.00226559 0)
(1.00769 -0.00240242 0)
(1.00634 -0.00249529 0)
(1.00478 -0.00253644 0)
(1.00202 -0.00326434 0)
(2.32013 -0.0036537 0)
(2.33477 -0.00612848 0)
(2.34583 -0.00594626 0)
(2.35763 -0.00619395 0)
(2.36899 -0.00640661 0)
(2.38056 -0.00680494 0)
(2.39248 -0.00734003 0)
(2.40499 -0.00801564 0)
(2.41821 -0.00881095 0)
(2.43226 -0.00971583 0)
(2.44718 -0.0107257 0)
(2.46302 -0.0118459 0)
(2.47985 -0.0130898 0)
(2.49771 -0.014478 0)
(2.51668 -0.016036 0)
(2.53685 -0.0177928 0)
(2.55834 -0.0197789 0)
(2.58124 -0.0220258 0)
(2.60569 -0.0245639 0)
(2.63182 -0.0274222 0)
(2.65975 -0.0306269 0)
(2.68959 -0.0342 0)
(2.72147 -0.0381583 0)
(2.75547 -0.0425119 0)
(2.79167 -0.0472631 0)
(2.83012 -0.0524049 0)
(2.87087 -0.0579203 0)
(2.91391 -0.0637811 0)
(2.95923 -0.0699473 0)
(3.00678 -0.076367 0)
(3.05647 -0.0829756 0)
(3.1082 -0.089696 0)
(3.16182 -0.0964389 0)
(3.21716 -0.103102 0)
(3.27401 -0.109572 0)
(3.33214 -0.115719 0)
(3.39126 -0.121404 0)
(3.45106 -0.126471 0)
(3.51118 -0.13075 0)
(3.57123 -0.134054 0)
(3.63078 -0.136183 0)
(3.68935 -0.136918 0)
(3.74644 -0.136029 0)
(3.80151 -0.133271 0)
(3.85403 -0.128392 0)
(3.90341 -0.121137 0)
(3.94909 -0.11125 0)
(3.99054 -0.0984861 0)
(4.02721 -0.0826159 0)
(4.05862 -0.0634317 0)
(4.08436 -0.0407549 0)
(4.10404 -0.0144414 0)
(4.11751 0.0155957 0)
(4.1244 0.0494281 0)
(4.1251 0.0874144 0)
(4.11969 0.129864 0)
(4.10827 0.176854 0)
(4.09099 0.228344 0)
(4.06807 0.284173 0)
(4.0398 0.344047 0)
(4.00653 0.40752 0)
(3.96866 0.473974 0)
(3.92666 0.542592 0)
(3.88094 0.61234 0)
(3.83191 0.681948 0)
(3.77984 0.749902 0)
(3.72487 0.814456 0)
(3.66693 0.87365 0)
(3.60569 0.925366 0)
(3.54054 0.967398 0)
(3.47063 0.997536 0)
(3.39489 1.01367 0)
(3.31212 1.01386 0)
(3.22109 0.996459 0)
(3.12068 0.960135 0)
(3.01002 0.903961 0)
(2.88872 0.827447 0)
(2.75736 0.730651 0)
(2.61834 0.614709 0)
(2.4768 0.483387 0)
(2.34061 0.345353 0)
(2.21866 0.214923 0)
(2.11794 0.108431 0)
(2.04147 0.0364376 0)
(1.98801 -0.0018848 0)
(1.95373 -0.015773 0)
(1.93337 -0.0155533 0)
(1.92202 -0.00832443 0)
(1.91584 0.00183064 0)
(1.91218 0.0127178 0)
(1.90948 0.0233673 0)
(1.90686 0.0334995 0)
(1.90388 0.0431126 0)
(1.90036 0.0522784 0)
(1.89622 0.0610742 0)
(1.89146 0.0695665 0)
(1.88606 0.0778108 0)
(1.88007 0.085853 0)
(1.87346 0.0937315 0)
(1.86609 0.101478 0)
(1.85798 0.109133 0)
(1.8481 0.116814 0)
(1.83652 0.124353 0)
(1.82305 0.131601 0)
(1.80762 0.138404 0)
(1.79021 0.144603 0)
(1.77085 0.150043 0)
(1.74967 0.154592 0)
(1.72687 0.158147 0)
(1.70272 0.160647 0)
(1.67754 0.162074 0)
(1.65171 0.162458 0)
(1.6256 0.161874 0)
(1.59961 0.160428 0)
(1.57411 0.158255 0)
(1.54944 0.155503 0)
(1.52586 0.152327 0)
(1.50359 0.148877 0)
(1.4828 0.145291 0)
(1.46357 0.14169 0)
(1.44593 0.138173 0)
(1.42987 0.134821 0)
(1.41535 0.131691 0)
(1.40227 0.128823 0)
(1.39056 0.126242 0)
(1.3801 0.123958 0)
(1.37082 0.121971 0)
(1.36246 0.120273 0)
(1.35479 0.118838 0)
(1.34714 0.11742 0)
(1.33955 0.115979 0)
(1.33198 0.114493 0)
(1.32439 0.112949 0)
(1.31674 0.11133 0)
(1.309 0.109622 0)
(1.30116 0.107812 0)
(1.29318 0.105888 0)
(1.28504 0.103838 0)
(1.27673 0.101653 0)
(1.26822 0.0993236 0)
(1.25952 0.096843 0)
(1.2506 0.0942058 0)
(1.24148 0.0914087 0)
(1.23214 0.0884497 0)
(1.2226 0.0853294 0)
(1.21286 0.0820501 0)
(1.20295 0.0786165 0)
(1.19288 0.0750358 0)
(1.18269 0.0713175 0)
(1.17241 0.067474 0)
(1.16207 0.0635205 0)
(1.15173 0.0594749 0)
(1.14144 0.0553584 0)
(1.13125 0.051195 0)
(1.12122 0.0470115 0)
(1.11141 0.0428375 0)
(1.1019 0.0387048 0)
(1.09273 0.034647 0)
(1.08397 0.0306986 0)
(1.07568 0.0268943 0)
(1.06791 0.0232678 0)
(1.0607 0.0198506 0)
(1.05408 0.0166709 0)
(1.04809 0.013752 0)
(1.04272 0.0111115 0)
(1.03797 0.00876023 0)