/*--------------------------------*- C++ -*----------------------------------*\
| =========                 |                                                 |
| \\      /  F ield         | OpenFOAM: The Open Source CFD Toolbox           |
|  \\    /   O peration     | Version:  2406                                  |
|   \\  /    A nd           | Website:  www.openfoam.com                      |
|    \\/     M anipulation  |                                                 |
\*---------------------------------------------------------------------------*/
FoamFile
{
    version     2.0;
    format      ascii;
    arch        "LSB;label=32;scalar=64";
    class       surfaceScalarField;
    location    "2.1";
    object      alphaPhi0.air;
}
// * * * * * * * * * * * * * * * * * * * * * * * * * * * * * * * * * * * * * //

dimensions      [0 3 -1 0 0 0 0];

oriented        oriented;

internalField   nonuniform List<scalar> 
12225
(
0.511138
1.73438e-06
0.511131
6.5464e-06
0.511124
7.57541e-06
0.511119
5.12758e-06
0.511114
4.20874e-06
0.51111
4.76616e-06
0.511104
5.41206e-06
0.511099
5.49981e-06
0.511093
5.32956e-06
0.511088
5.25661e-06
0.511083
5.39082e-06
0.511077
5.42041e-06
0.511072
5.35743e-06
0.511066
5.44167e-06
0.511061
5.68268e-06
0.511055
5.93072e-06
0.511049
5.84469e-06
0.511044
5.47616e-06
0.511038
5.06393e-06
0.511034
4.49586e-06
0.51103
4.09445e-06
0.511025
4.58773e-06
0.51102
5.32769e-06
0.511015
5.28663e-06
0.511009
5.19747e-06
0.511004
5.45176e-06
0.510998
5.53457e-06
0.510993
5.93882e-06
0.510986
6.30932e-06
0.51098
5.85463e-06
0.510975
5.30614e-06
0.51097
5.15599e-06
0.510965
5.27652e-06
0.510959
5.74117e-06
0.510953
6.01983e-06
0.510947
5.74847e-06
0.510941
5.7152e-06
0.510936
5.71424e-06
0.51093
5.27551e-06
0.510925
5.32509e-06
0.510919
5.87298e-06
0.510913
6.05429e-06
0.510907
5.70997e-06
0.510902
5.24466e-06
0.510897
5.23598e-06
0.510891
5.55656e-06
0.510886
5.45776e-06
0.510881
5.00566e-06
0.510876
4.96433e-06
0.510871
5.20128e-06
0.510865
5.30203e-06
0.51086
5.55993e-06
0.510854
5.7775e-06
0.510848
5.78613e-06
0.510842
5.90951e-06
0.510837
5.77514e-06
0.510831
5.37534e-06
0.510826
5.20548e-06
0.510821
5.20135e-06
0.510816
5.32515e-06
0.51081
5.17709e-06
0.510806
4.63244e-06
0.510801
4.63693e-06
0.510796
5.18531e-06
0.510791
5.37635e-06
0.510785
5.38485e-06
0.510779
5.72593e-06
0.510773
6.10548e-06
0.510767
6.10789e-06
0.510761
5.85237e-06
0.510756
5.53608e-06
0.51075
5.39114e-06
0.510745
5.4206e-06
0.51074
5.30529e-06
0.510735
5.22029e-06
0.510729
5.16866e-06
0.510724
4.96297e-06
0.510719
4.97652e-06
0.510714
5.2026e-06
0.510709
5.26203e-06
0.510704
5.16917e-06
0.510698
5.28847e-06
0.510693
5.6701e-06
0.510687
5.89231e-06
0.510681
5.95765e-06
0.510675
5.95985e-06
0.510669
5.73336e-06
0.510664
5.5547e-06
0.510658
5.50891e-06
0.510653
5.35346e-06
0.510648
5.15112e-06
0.510643
5.06911e-06
0.510637
5.24816e-06
0.510632
5.49719e-06
0.510626
5.62376e-06
0.510621
5.70952e-06
0.510615
5.56428e-06
0.51061
5.21014e-06
0.510605
4.9984e-06
0.5106
4.9863e-06
0.510595
5.22228e-06
0.510589
5.70947e-06
0.510583
6.14624e-06
0.510576
6.28093e-06
0.51057
6.10665e-06
0.510565
5.70339e-06
0.510559
5.35435e-06
0.510554
5.31194e-06
0.510549
5.36432e-06
0.510543
5.35062e-06
0.510538
5.41193e-06
0.510532
5.60747e-06
0.510526
5.77858e-06
0.510521
5.62026e-06
0.510516
5.24052e-06
0.510511
5.03301e-06
0.510506
4.93074e-06
0.510501
4.91551e-06
0.510496
5.20486e-06
0.51049
5.60311e-06
0.510484
5.75266e-06
0.510478
5.76376e-06
0.510473
5.84073e-06
0.510467
5.68938e-06
0.510462
5.29157e-06
0.510457
4.99059e-06
0.510452
4.85109e-06
0.510447
5.05662e-06
0.510441
5.50592e-06
0.510435
5.78669e-06
0.510429
5.98003e-06
0.510423
5.99507e-06
0.510418
5.64355e-06
0.510412
5.25541e-06
0.510407
5.0163e-06
0.510403
4.93402e-06
0.510397
5.17073e-06
0.510392
5.65975e-06
0.510386
5.97308e-06
0.51038
5.89866e-06
0.510374
5.64102e-06
0.510369
5.36255e-06
0.510364
5.19555e-06
0.510358
5.29256e-06
0.510353
5.43856e-06
0.510348
5.40787e-06
0.510342
5.3787e-06
0.510337
5.42371e-06
0.510331
5.41945e-06
0.510326
5.40062e-06
0.51032
5.44532e-06
0.510315
5.60801e-06
0.510309
5.74012e-06
0.510304
5.54632e-06
0.510298
5.33636e-06
0.510293
5.49354e-06
0.510287
5.65324e-06
0.510281
5.62257e-06
0.510276
5.49121e-06
0.510271
5.19016e-06
0.510266
4.95303e-06
0.510261
4.96556e-06
0.510256
5.10079e-06
0.51025
5.33545e-06
0.510245
5.6456e-06
0.510239
5.85673e-06
0.510233
5.94735e-06
0.510227
5.86513e-06
0.510222
5.54419e-06
0.510216
5.15877e-06
0.510212
4.86721e-06
0.510207
4.8364e-06
0.510201
5.24434e-06
0.510196
5.70888e-06
0.51019
5.81586e-06
0.510184
5.80363e-06
0.510178
5.66536e-06
0.510173
5.21427e-06
0.510168
5.01239e-06
0.510163
5.28718e-06
0.510158
5.42454e-06
0.510152
5.32206e-06
0.510147
5.29453e-06
0.510142
5.18546e-06
0.510137
5.06594e-06
0.510131
5.15741e-06
0.510126
5.20214e-06
0.510121
5.16228e-06
0.510116
5.21324e-06
0.510111
5.2277e-06
0.510105
5.33239e-06
0.5101
5.62898e-06
0.510094
5.83978e-06
0.510088
5.89443e-06
0.510082
5.82407e-06
0.510076
5.67413e-06
0.510071
5.58897e-06
0.510065
5.51985e-06
0.51006
5.39241e-06
0.510055
5.31281e-06
0.510049
5.32345e-06
0.510044
5.24133e-06
0.510039
5.02742e-06
0.510034
5.03024e-06
0.510029
5.33581e-06
0.510023
5.60945e-06
0.510017
5.80068e-06
0.510011
6.05373e-06
0.510005
6.23894e-06
0.509999
6.07929e-06
0.509993
5.50746e-06
0.509988
4.9416e-06
0.509984
4.79705e-06
0.509979
4.90763e-06
0.509974
5.11434e-06
0.509968
5.47646e-06
0.509962
5.84624e-06
0.509956
6.01609e-06
0.50995
5.95516e-06
0.509945
5.72103e-06
0.509939
5.41145e-06
0.509934
5.2558e-06
0.509929
5.38311e-06
0.509923
5.49639e-06
0.509918
5.51037e-06
0.509912
5.59372e-06
0.509906
5.58785e-06
0.509901
5.37524e-06
0.509896
5.13269e-06
0.509891
5.0207e-06
0.509886
5.05903e-06
0.50988
5.33217e-06
0.509875
5.7698e-06
0.509869
5.98556e-06
0.509863
5.93466e-06
0.509857
5.73028e-06
0.509852
5.49066e-06
0.509846
5.53316e-06
0.50984
5.70889e-06
0.509835
5.71106e-06
0.509829
5.60259e-06
0.509824
5.43745e-06
0.509818
5.26014e-06
0.509813
5.22501e-06
0.509808
5.2904e-06
0.509803
5.26551e-06
0.509797
5.31722e-06
0.509792
5.47487e-06
0.509786
5.98693e-06
5.3937e-06
0.511143
8.72625e-08
0.511149
3.84537e-07
0.511155
1.23659e-06
0.511158
2.36284e-06
0.51116
2.72066e-06
0.511162
2.62589e-06
0.511165
2.58309e-06
0.511168
2.4905e-06
0.511171
2.30682e-06
0.511174
1.95407e-06
0.511178
1.68625e-06
0.511181
2.0793e-06
0.511184
2.60924e-06
0.511187
2.56515e-06
0.51119
2.31861e-06
0.511193
2.40532e-06
0.511197
2.71198e-06
0.511199
2.59639e-06
0.511203
2.03333e-06
0.511205
2.03583e-06
0.511207
2.53658e-06
0.511209
2.41192e-06
0.511212
2.31377e-06
0.511214
2.74624e-06
0.511217
2.6836e-06
0.51122
2.61656e-06
0.511222
3.18101e-06
0.511224
3.53483e-06
0.511227
3.54346e-06
0.51123
3.18661e-06
0.511233
2.13609e-06
0.511237
1.42167e-06
0.51124
1.5633e-06
0.511245
1.61138e-06
0.511249
2.0045e-06
0.511251
2.96927e-06
0.511254
3.0471e-06
0.511257
2.48554e-06
0.51126
2.27012e-06
0.511263
2.19484e-06
0.511267
2.33579e-06
0.51127
2.68168e-06
0.511273
2.72775e-06
0.511276
2.81945e-06
0.511278
3.15032e-06
0.51128
2.94811e-06
0.511283
2.65762e-06
0.511285
2.84798e-06
0.511288
2.74375e-06
0.511291
2.23243e-06
0.511294
1.76239e-06
0.511298
1.60231e-06
0.511302
1.87726e-06
0.511306
2.16233e-06
0.511309
2.19292e-06
0.511313
2.14829e-06
0.511316
2.24214e-06
0.511319
2.60911e-06
0.511321
2.94794e-06
0.511323
3.11183e-06
0.511325
3.39487e-06
0.511326
3.65721e-06
0.511327
3.48081e-06
0.511329
2.82872e-06
0.511333
2.18809e-06
0.511336
1.8653e-06
0.51134
1.75821e-06
0.511344
1.85406e-06
0.511348
1.93032e-06
0.511352
1.84086e-06
0.511356
1.98663e-06
0.511359
2.27679e-06
0.511362
2.33241e-06
0.511365
2.40101e-06
0.511368
2.69394e-06
0.51137
2.89023e-06
0.511372
2.99057e-06
0.511374
3.27781e-06
0.511375
3.31572e-06
0.511378
2.92823e-06
0.51138
2.56698e-06
0.511383
2.2753e-06
0.511387
2.19339e-06
0.511391
2.24439e-06
0.511394
2.02956e-06
0.511399
1.80398e-06
0.511403
1.69905e-06
0.511407
1.64884e-06
0.51141
1.97497e-06
0.511413
2.48459e-06
0.511415
2.74628e-06
0.511418
2.86845e-06
0.51142
2.96814e-06
0.511422
3.00643e-06
0.511425
3.05268e-06
0.511428
3.07337e-06
0.51143
3.00494e-06
0.511432
2.90345e-06
0.511435
2.68396e-06
0.511437
2.36244e-06
0.51144
2.10566e-06
0.511444
1.90787e-06
0.511449
1.91488e-06
0.511453
2.07586e-06
0.511457
2.10552e-06
0.51146
2.19307e-06
0.511463
2.47189e-06
0.511466
2.68909e-06
0.511468
2.74186e-06
0.511471
2.70404e-06
0.511474
2.66498e-06
0.511477
2.71516e-06
0.51148
2.78969e-06
0.511483
2.75443e-06
0.511485
2.73789e-06
0.511487
2.89338e-06
0.511489
3.06774e-06
0.511491
3.04418e-06
0.511493
2.66976e-06
0.511497
2.10684e-06
0.511501
1.83136e-06
0.511505
1.95742e-06
0.511508
2.26528e-06
0.511511
2.5681e-06
0.511514
2.64038e-06
0.511517
2.47835e-06
0.511519
2.21965e-06
0.511522
1.98525e-06
0.511526
1.84356e-06
0.51153
1.78893e-06
0.511534
2.07861e-06
0.511537
2.77383e-06
0.511539
3.2985e-06
0.511541
3.37921e-06
0.511543
3.33589e-06
0.511545
3.21479e-06
0.511547
2.83637e-06
0.51155
2.47757e-06
0.511554
2.38817e-06
0.511557
2.43091e-06
0.51156
2.54988e-06
0.511563
2.71371e-06
0.511565
2.7086e-06
0.511568
2.55896e-06
0.511571
2.49448e-06
0.511574
2.41142e-06
0.511577
2.11895e-06
0.511581
1.90939e-06
0.511584
1.98957e-06
0.511588
2.1246e-06
0.511591
2.34685e-06
0.511594
2.73808e-06
0.511596
3.04015e-06
0.511599
2.98323e-06
0.511602
2.52218e-06
0.511605
2.06206e-06
0.511609
1.95486e-06
0.511612
2.06109e-06
0.511615
2.29767e-06
0.511618
2.69803e-06
0.51162
2.9952e-06
0.511622
2.98065e-06
0.511624
2.825e-06
0.511627
2.6533e-06
0.51163
2.57648e-06
0.511633
2.78946e-06
0.511636
3.09541e-06
0.511639
3.13681e-06
0.511641
3.07105e-06
0.511643
3.05579e-06
0.511645
2.78092e-06
0.511648
2.3673e-06
0.511651
2.23479e-06
0.511654
2.21146e-06
0.511658
2.09182e-06
0.511662
2.02558e-06
0.511665
2.17233e-06
0.511668
2.50361e-06
0.51167
2.70393e-06
0.511673
2.70401e-06
0.511675
2.79349e-06
0.511678
2.87152e-06
0.51168
2.76076e-06
0.511683
2.64817e-06
0.511686
2.51321e-06
0.511688
2.2889e-06
0.511691
2.26931e-06
0.511694
2.53744e-06
0.511697
2.68171e-06
0.511699
2.47569e-06
0.511702
2.27388e-06
0.511706
2.29933e-06
0.511709
2.36603e-06
0.511713
2.38533e-06
0.511716
2.40393e-06
0.511719
2.43896e-06
0.511722
2.48958e-06
0.511725
2.52948e-06
0.511728
2.4654e-06
0.511731
2.23493e-06
0.511735
2.13551e-06
0.511737
2.39223e-06
0.51174
2.6424e-06
0.511742
2.67983e-06
0.511745
2.64318e-06
0.511748
2.47782e-06
0.511751
2.34718e-06
0.511755
2.44005e-06
0.511759
2.45319e-06
0.511763
2.35232e-06
0.511766
2.48331e-06
0.511768
2.57409e-06
0.51177
2.32604e-06
0.511773
2.08055e-06
0.511776
2.04672e-06
0.51178
2.09888e-06
0.511783
2.30155e-06
0.511787
2.68979e-06
0.51179
2.91638e-06
0.511793
2.80616e-06
0.511795
2.63067e-06
0.511798
2.58732e-06
0.511801
2.672e-06
0.511804
2.64777e-06
0.511807
2.45224e-06
0.51181
2.40838e-06
0.511813
2.51454e-06
0.511816
2.46339e-06
0.511819
2.21977e-06
0.511822
2.01756e-06
0.511825
2.07939e-06
0.511828
2.37531e-06
0.511831
2.69058e-06
0.511834
2.73771e-06
0.511837
2.55991e-06
0.51184
2.61466e-06
0.511843
2.94269e-06
0.511845
3.18924e-06
0.511848
3.08867e-06
0.511851
2.74795e-06
0.511854
2.50042e-06
0.511857
2.34498e-06
0.51186
2.23766e-06
0.511863
2.33281e-06
0.511866
2.52204e-06
0.511869
2.49246e-06
0.511872
2.28561e-06
0.511875
2.18683e-06
0.511879
2.22695e-06
2.52795e-06
0.511142
-6.39729e-08
0.511142
4.5023e-07
0.511142
1.23722e-06
0.511142
1.79139e-06
0.511143
1.78009e-06
0.511144
1.61983e-06
0.511145
1.68757e-06
0.511146
2.14472e-06
0.511146
2.34487e-06
0.511146
1.89324e-06
0.511146
1.77022e-06
0.511145
2.37894e-06
0.511145
2.83361e-06
0.511145
2.70044e-06
0.511145
2.46873e-06
0.511145
2.38922e-06
0.511145
1.9858e-06
0.511147
1.53695e-06
0.511147
1.70102e-06
0.511147
1.80775e-06
0.511148
1.69169e-06
0.511148
2.21126e-06
0.511148
2.79046e-06
0.511148
2.72217e-06
0.511148
2.5696e-06
0.511148
2.59011e-06
0.511148
2.72915e-06
0.511149
3.16442e-06
0.511149
3.22654e-06
0.51115
2.24045e-06
0.511151
1.31861e-06
0.511151
1.02473e-06
0.511152
1.08985e-06
0.511151
1.85523e-06
0.511151
2.53089e-06
0.511151
2.36056e-06
0.511152
2.0617e-06
0.511153
2.01576e-06
0.511153
2.07864e-06
0.511153
2.44869e-06
0.511152
2.79687e-06
0.511152
2.63289e-06
0.511153
2.45761e-06
0.511153
2.65327e-06
0.511153
2.92859e-06
0.511153
2.95591e-06
0.511153
2.71778e-06
0.511153
2.46607e-06
0.511154
2.31336e-06
0.511154
2.22336e-06
0.511154
1.95932e-06
0.511154
1.5899e-06
0.511154
1.5876e-06
0.511154
1.90905e-06
0.511154
2.27216e-06
0.511154
2.51937e-06
0.511154
2.39725e-06
0.511154
2.1065e-06
0.511155
1.9174e-06
0.511156
1.9e-06
0.511157
2.34387e-06
0.511158
2.98674e-06
0.511158
3.12231e-06
0.511159
2.68803e-06
0.511159
2.14382e-06
0.511159
1.83297e-06
0.511159
1.7848e-06
0.511159
1.87592e-06
0.511159
1.96889e-06
0.511158
1.92789e-06
0.511159
1.77635e-06
0.511159
1.69851e-06
0.51116
1.85474e-06
0.51116
2.03478e-06
0.511161
2.05634e-06
0.511161
2.28483e-06
0.511162
2.76261e-06
0.511162
3.00569e-06
0.511162
2.80167e-06
0.511163
2.3842e-06
0.511163
2.16566e-06
0.511163
2.30484e-06
0.511163
2.50937e-06
0.511163
2.3391e-06
0.511163
1.92388e-06
0.511163
1.78312e-06
0.511163
1.89857e-06
0.511162
2.04343e-06
0.511162
2.18008e-06
0.511162
2.3356e-06
0.511162
2.58508e-06
0.511163
2.76623e-06
0.511163
2.85808e-06
0.511163
2.98552e-06
0.511163
2.92344e-06
0.511163
2.62366e-06
0.511164
2.2614e-06
0.511165
1.95098e-06
0.511166
1.83635e-06
0.511166
1.91922e-06
0.511166
2.13498e-06
0.511166
2.29062e-06
0.511166
2.17213e-06
0.511166
1.91023e-06
0.511166
1.78644e-06
0.511166
1.97442e-06
0.511166
2.32281e-06
0.511167
2.44562e-06
0.511167
2.30556e-06
0.511168
2.24659e-06
0.511168
2.29708e-06
0.511169
2.16233e-06
0.511169
1.97714e-06
0.51117
2.05258e-06
0.511171
2.23865e-06
0.511171
2.41226e-06
0.511171
2.74001e-06
0.511171
3.11701e-06
0.511171
3.06574e-06
0.51117
2.60954e-06
0.51117
2.30556e-06
0.51117
2.12018e-06
0.51117
1.87699e-06
0.511171
1.81419e-06
0.511172
1.82923e-06
0.511172
1.81924e-06
0.511173
1.88111e-06
0.511173
1.89293e-06
0.511173
1.88315e-06
0.511173
1.89493e-06
0.511173
1.90927e-06
0.511173
2.14676e-06
0.511174
2.57837e-06
0.511175
2.8463e-06
0.511175
2.88116e-06
0.511175
2.87559e-06
0.511175
2.87356e-06
0.511175
2.77028e-06
0.511175
2.546e-06
0.511175
2.34412e-06
0.511175
2.29211e-06
0.511176
2.33044e-06
0.511176
2.34624e-06
0.511176
2.19447e-06
0.511177
1.87839e-06
0.511178
1.72732e-06
0.511178
1.73824e-06
0.511178
1.64684e-06
0.511179
1.64895e-06
0.511179
1.89622e-06
0.511179
2.15632e-06
0.51118
2.34891e-06
0.51118
2.54706e-06
0.51118
2.6204e-06
0.511181
2.39844e-06
0.51118
2.10258e-06
0.51118
2.00026e-06
0.51118
2.00317e-06
0.511181
2.09162e-06
0.511181
2.24286e-06
0.511182
2.38024e-06
0.511182
2.58965e-06
0.511182
2.80286e-06
0.511182
2.87589e-06
0.511182
2.88091e-06
0.511182
2.78696e-06
0.511182
2.65801e-06
0.511183
2.64209e-06
0.511183
2.58964e-06
0.511184
2.55079e-06
0.511184
2.67679e-06
0.511183
2.68053e-06
0.511183
2.49587e-06
0.511183
2.39506e-06
0.511183
2.31607e-06
0.511183
2.13446e-06
0.511183
2.11472e-06
0.511183
2.31195e-06
0.511183
2.27566e-06
0.511184
2.04999e-06
0.511185
2.09955e-06
0.511185
2.23792e-06
0.511186
2.27583e-06
0.511186
2.35342e-06
0.511186
2.30362e-06
0.511186
2.17834e-06
0.511186
2.20578e-06
0.511187
2.2183e-06
0.511187
2.14215e-06
0.511188
2.11912e-06
0.511188
2.27088e-06
0.511187
2.53368e-06
0.511187
2.59005e-06
0.511187
2.38703e-06
0.511187
2.16691e-06
0.511188
2.05261e-06
0.511188
2.0766e-06
0.511189
2.17725e-06
0.511189
2.19257e-06
0.511189
1.94879e-06
0.51119
1.58117e-06
0.51119
1.5995e-06
0.511191
2.02472e-06
0.511191
2.33247e-06
0.511192
2.41627e-06
0.511192
2.49328e-06
0.511191
2.55856e-06
0.511191
2.48757e-06
0.511192
2.18428e-06
0.511192
1.82798e-06
0.511193
1.77657e-06
0.511193
1.97643e-06
0.511194
2.14312e-06
0.511194
2.16967e-06
0.511194
2.08704e-06
0.511194
2.0132e-06
0.511194
2.04752e-06
0.511194
2.20659e-06
0.511195
2.3028e-06
0.511196
2.25835e-06
0.511196
2.36128e-06
0.511196
2.59398e-06
0.511196
2.69018e-06
0.511196
2.62204e-06
0.511196
2.42275e-06
0.511196
2.25851e-06
0.511196
2.19896e-06
0.511197
1.99884e-06
0.511197
1.6862e-06
0.511198
1.6825e-06
0.511198
2.12098e-06
0.511197
2.56232e-06
0.511197
2.67266e-06
0.511198
2.53052e-06
0.511198
2.34108e-06
0.511198
2.42507e-06
0.511198
2.65682e-06
0.511199
2.68312e-06
0.511199
2.63673e-06
0.511199
2.6228e-06
0.511199
2.51821e-06
0.511199
2.32364e-06
0.5112
2.07283e-06
0.5112
1.82797e-06
0.511201
1.80275e-06
0.511201
2.01109e-06
0.511201
2.07585e-06
0.511202
1.87048e-06
0.511202
1.63e-06
1.78988e-06
0.511142
8.23158e-08
0.511142
7.10089e-07
0.511142
1.1147e-06
0.511142
1.19727e-06
0.511143
1.10169e-06
0.511144
9.94083e-07
0.511144
1.11794e-06
0.511145
1.09216e-06
0.511147
9.59819e-07
0.511147
1.38171e-06
0.511147
2.13843e-06
0.511147
2.5108e-06
0.511147
2.62372e-06
0.511147
2.728e-06
0.511147
2.49362e-06
0.511147
2.08697e-06
0.511147
1.94761e-06
0.511147
1.76864e-06
0.511147
1.49143e-06
0.511147
1.70137e-06
0.511147
2.2433e-06
0.511147
2.19639e-06
0.511148
1.904e-06
0.511148
2.24551e-06
0.511148
2.56548e-06
0.511148
2.92042e-06
0.511147
3.48128e-06
0.511147
2.98085e-06
0.511149
1.87755e-06
0.51115
1.2563e-06
0.51115
1.16114e-06
0.511149
1.56493e-06
0.511149
1.80058e-06
0.511149
1.58983e-06
0.51115
1.50617e-06
0.511151
1.57034e-06
0.511151
1.64312e-06
0.511151
1.60603e-06
0.511152
1.42188e-06
0.511153
1.54281e-06
0.511154
1.93666e-06
0.511154
2.44512e-06
0.511153
3.16057e-06
0.511153
3.2638e-06
0.511153
2.85647e-06
0.511153
2.7954e-06
0.511153
2.56454e-06
0.511153
2.0877e-06
0.511154
1.99934e-06
0.511154
2.08229e-06
0.511154
1.90705e-06
0.511154
1.54012e-06
0.511154
1.33922e-06
0.511155
1.53457e-06
0.511155
1.9439e-06
0.511155
2.25835e-06
0.511155
2.37455e-06
0.511155
2.51172e-06
0.511154
2.61363e-06
0.511154
2.45945e-06
0.511154
2.28466e-06
0.511155
2.05545e-06
0.511156
1.64229e-06
0.511157
1.46977e-06
0.511158
1.66859e-06
0.511158
1.903e-06
0.511158
1.79004e-06
0.511158
1.38499e-06
0.511159
1.27412e-06
0.511159
1.51853e-06
0.511159
1.63299e-06
0.511159
1.65052e-06
0.511159
1.9485e-06
0.511159
2.31416e-06
0.511159
2.36771e-06
0.511159
2.40792e-06
0.511159
2.5117e-06
0.511159
2.47077e-06
0.51116
2.3748e-06
0.51116
2.16463e-06
0.51116
1.90716e-06
0.511161
1.69478e-06
0.511162
1.56357e-06
0.511163
1.60635e-06
0.511163
1.47559e-06
0.511164
1.31056e-06
0.511164
1.59475e-06
0.511164
2.01697e-06
0.511164
2.28455e-06
0.511164
2.40954e-06
0.511164
2.49117e-06
0.511164
2.72643e-06
0.511164
3.00913e-06
0.511164
3.11996e-06
0.511164
2.89428e-06
0.511164
2.46757e-06
0.511164
2.12538e-06
0.511164
1.73525e-06
0.511165
1.38152e-06
0.511165
1.36443e-06
0.511166
1.58749e-06
0.511166
1.8235e-06
0.511167
1.81042e-06
0.511167
1.57866e-06
0.511167
1.56239e-06
0.511167
1.8268e-06
0.511167
2.04309e-06
0.511168
2.07996e-06
0.511168
2.02618e-06
0.511168
2.04661e-06
0.511168
2.16693e-06
0.511168
2.16738e-06
0.511168
2.06186e-06
0.511168
2.04093e-06
0.511169
2.07261e-06
0.511169
2.1646e-06
0.511169
2.219e-06
0.51117
2.18029e-06
0.511171
2.33092e-06
0.511171
2.49186e-06
0.511171
2.40625e-06
0.511171
2.26106e-06
0.511171
1.90097e-06
0.511171
1.37843e-06
0.511172
1.20979e-06
0.511172
1.24023e-06
0.511173
1.08809e-06
0.511174
1.08191e-06
0.511174
1.52773e-06
0.511174
2.10546e-06
0.511174
2.41831e-06
0.511173
2.43458e-06
0.511174
2.40334e-06
0.511174
2.45011e-06
0.511174
2.43137e-06
0.511175
2.45578e-06
0.511175
2.55023e-06
0.511176
2.44396e-06
0.511176
2.34161e-06
0.511176
2.38744e-06
0.511176
2.31417e-06
0.511176
2.19936e-06
0.511176
2.08626e-06
0.511176
1.79126e-06
0.511177
1.49298e-06
0.511177
1.40938e-06
0.511177
1.40937e-06
0.511178
1.33002e-06
0.511178
1.30017e-06
0.511178
1.57827e-06
0.511179
2.03698e-06
0.511179
2.1896e-06
0.511179
2.01821e-06
0.51118
1.98861e-06
0.51118
2.04759e-06
0.51118
1.94744e-06
0.51118
1.91457e-06
0.511181
1.99666e-06
0.511181
2.01426e-06
0.511181
2.05451e-06
0.511181
2.15896e-06
0.511181
2.25073e-06
0.511182
2.44484e-06
0.511182
2.75913e-06
0.511182
2.9657e-06
0.511182
2.97602e-06
0.511181
2.89597e-06
0.511181
2.71939e-06
0.511181
2.41155e-06
0.511182
2.21678e-06
0.511182
2.30432e-06
0.511182
2.33404e-06
0.511183
2.1581e-06
0.511183
2.07263e-06
0.511183
2.11299e-06
0.511183
2.15359e-06
0.511183
2.15316e-06
0.511183
2.13097e-06
0.511184
2.18019e-06
0.511183
2.12521e-06
0.511184
1.92951e-06
0.511184
1.89332e-06
0.511184
1.85257e-06
0.511185
1.64475e-06
0.511186
1.64277e-06
0.511186
1.87764e-06
0.511186
2.01387e-06
0.511186
2.04978e-06
0.511186
2.07195e-06
0.511187
2.02267e-06
0.511187
1.98642e-06
0.511187
2.03909e-06
0.511188
2.04899e-06
0.511188
2.06957e-06
0.511188
2.24365e-06
0.511188
2.32707e-06
0.511188
2.09945e-06
0.511188
1.7801e-06
0.511189
1.66365e-06
0.511189
1.71846e-06
0.511189
1.6924e-06
0.511189
1.63607e-06
0.511189
1.7738e-06
0.51119
1.87905e-06
0.51119
1.85525e-06
0.511191
2.09423e-06
0.511191
2.41943e-06
0.511191
2.35601e-06
0.511191
2.02106e-06
0.511191
1.59566e-06
0.511192
1.32186e-06
0.511192
1.50169e-06
0.511192
1.80623e-06
0.511193
1.83532e-06
0.511193
1.78217e-06
0.511193
1.89708e-06
0.511193
2.07243e-06
0.511193
2.03262e-06
0.511194
1.78674e-06
0.511194
1.65751e-06
0.511195
1.85378e-06
0.511195
2.15162e-06
0.511196
2.26065e-06
0.511196
2.26596e-06
0.511196
2.27447e-06
0.511196
2.16809e-06
0.511197
1.91152e-06
0.511197
1.63109e-06
0.511197
1.45705e-06
0.511197
1.56992e-06
0.511198
1.98543e-06
0.511198
2.18978e-06
0.511199
2.00346e-06
0.511199
1.91895e-06
0.5112
2.08415e-06
0.5112
2.41723e-06
0.5112
2.67342e-06
0.5112
2.49032e-06
0.5112
2.18681e-06
0.511201
2.10258e-06
0.511201
2.15967e-06
0.511201
2.20972e-06
0.511201
1.99195e-06
0.511201
1.63058e-06
0.511202
1.60887e-06
0.511202
1.83985e-06
0.511202
1.77641e-06
0.511202
1.51499e-06
0.511203
1.35484e-06
1.54463e-06
0.511142
2.17026e-07
0.511142
4.27504e-07
0.511143
5.93109e-07
0.511143
6.79471e-07
0.511143
8.2428e-07
0.511143
1.14319e-06
0.511143
1.06809e-06
0.511144
6.57736e-07
0.511144
7.08186e-07
0.511144
1.43869e-06
0.511144
2.03125e-06
0.511145
2.08825e-06
0.511145
2.0607e-06
0.511146
2.17177e-06
0.511146
2.30898e-06
0.511146
1.91873e-06
0.511147
1.08635e-06
0.511148
1.05428e-06
0.511147
1.88129e-06
0.511147
2.14031e-06
0.511147
1.94864e-06
0.511147
2.315e-06
0.511147
2.23738e-06
0.511147
1.63564e-06
0.511148
2.02642e-06
0.511148
2.38887e-06
0.51115
2.1018e-06
0.51115
2.31884e-06
0.51115
2.40759e-06
0.511149
1.9871e-06
0.511149
1.63746e-06
0.511149
1.14236e-06
0.51115
9.13516e-07
0.51115
1.20202e-06
0.51115
1.41339e-06
0.511151
1.35633e-06
0.511151
1.07214e-06
0.511152
1.22153e-06
0.511151
1.74323e-06
0.511151
1.7647e-06
0.511151
1.81041e-06
0.511151
2.1455e-06
0.511152
2.31216e-06
0.511153
2.59941e-06
0.511153
2.84047e-06
0.511153
2.54306e-06
0.511154
2.2173e-06
0.511153
2.25404e-06
0.511153
2.17597e-06
0.511153
1.96656e-06
0.511153
1.93874e-06
0.511153
1.78823e-06
0.511153
1.51067e-06
0.511153
1.47244e-06
0.511153
1.57092e-06
0.511154
1.61248e-06
0.511155
1.65876e-06
0.511155
1.8222e-06
0.511156
2.10289e-06
0.511156
2.30948e-06
0.511156
2.28007e-06
0.511156
1.93006e-06
0.511156
1.49667e-06
0.511156
1.35662e-06
0.511157
1.35938e-06
0.511157
1.33246e-06
0.511158
1.23083e-06
0.511158
1.10755e-06
0.511158
1.20413e-06
0.511158
1.26843e-06
0.511159
1.13409e-06
0.511159
1.24545e-06
0.51116
1.56929e-06
0.51116
1.75459e-06
0.511161
1.94013e-06
0.511161
2.29486e-06
0.511161
2.42162e-06
0.511161
2.15865e-06
0.511162
1.95959e-06
0.511162
1.91406e-06
0.511162
1.90895e-06
0.511162
1.83818e-06
0.511162
1.49497e-06
0.511162
1.19358e-06
0.511163
1.12425e-06
0.511163
1.11545e-06
0.511163
1.36812e-06
0.511163
1.83023e-06
0.511163
2.10897e-06
0.511164
2.23723e-06
0.511164
2.39564e-06
0.511164
2.60409e-06
0.511164
2.77012e-06
0.511164
2.78489e-06
0.511165
2.5985e-06
0.511165
2.18228e-06
0.511165
1.71012e-06
0.511166
1.50317e-06
0.511165
1.5316e-06
0.511165
1.50314e-06
0.511165
1.39241e-06
0.511166
1.29184e-06
0.511167
1.18737e-06
0.511167
1.17708e-06
0.511167
1.31493e-06
0.511168
1.5081e-06
0.511168
1.67133e-06
0.511168
1.76586e-06
0.511168
1.79445e-06
0.511169
1.71176e-06
0.511169
1.60718e-06
0.51117
1.66205e-06
0.51117
1.7687e-06
0.51117
1.90958e-06
0.51117
2.1879e-06
0.51117
2.35423e-06
0.51117
2.30558e-06
0.51117
2.29119e-06
0.51117
2.21725e-06
0.51117
1.93477e-06
0.511171
1.81448e-06
0.511171
1.95171e-06
0.511171
1.88843e-06
0.511171
1.54613e-06
0.511171
1.20084e-06
0.511172
9.77039e-07
0.511172
9.26074e-07
0.511172
9.59367e-07
0.511172
1.04781e-06
0.511173
1.36624e-06
0.511174
1.86066e-06
0.511174
2.21872e-06
0.511174
2.41024e-06
0.511174
2.56163e-06
0.511174
2.46535e-06
0.511174
2.186e-06
0.511174
2.14592e-06
0.511175
2.23455e-06
0.511175
2.25513e-06
0.511175
2.31077e-06
0.511175
2.23537e-06
0.511175
1.94824e-06
0.511175
1.73246e-06
0.511176
1.61812e-06
0.511176
1.36029e-06
0.511176
1.09478e-06
0.511176
1.02797e-06
0.511177
9.69926e-07
0.511177
1.01425e-06
0.511177
1.3449e-06
0.511178
1.72858e-06
0.511178
2.00978e-06
0.511178
1.94898e-06
0.511178
1.53337e-06
0.511179
1.34781e-06
0.511179
1.48636e-06
0.51118
1.65134e-06
0.51118
1.83885e-06
0.51118
1.91888e-06
0.51118
1.87908e-06
0.51118
1.95916e-06
0.51118
2.13037e-06
0.511181
2.2825e-06
0.511181
2.47624e-06
0.511181
2.70936e-06
0.511181
2.8037e-06
0.511181
2.73914e-06
0.511181
2.74334e-06
0.511181
2.73181e-06
0.511181
2.50683e-06
0.511181
2.31617e-06
0.511181
2.19725e-06
0.511181
1.87437e-06
0.511182
1.64119e-06
0.511182
1.77993e-06
0.511182
1.85538e-06
0.511183
1.67514e-06
0.511183
1.62797e-06
0.511184
1.7867e-06
0.511184
1.83906e-06
0.511184
1.7546e-06
0.511184
1.61899e-06
0.511185
1.43779e-06
0.511185
1.38521e-06
0.511185
1.48097e-06
0.511186
1.59814e-06
0.511186
1.72449e-06
0.511186
1.72986e-06
0.511187
1.59352e-06
0.511187
1.52867e-06
0.511188
1.58561e-06
0.511188
1.7462e-06
0.511188
1.95996e-06
0.511188
2.07017e-06
0.511188
2.04741e-06
0.511188
1.98594e-06
0.511189
1.90683e-06
0.511189
1.72847e-06
0.511189
1.47132e-06
0.511189
1.29504e-06
0.51119
1.2934e-06
0.51119
1.47804e-06
0.51119
1.75311e-06
0.51119
1.93041e-06
0.51119
1.90528e-06
0.51119
1.76292e-06
0.511191
1.68965e-06
0.511191
1.70575e-06
0.511192
1.66593e-06
0.511192
1.53234e-06
0.511192
1.4495e-06
0.511192
1.57364e-06
0.511192
1.71273e-06
0.511192
1.56265e-06
0.511192
1.42059e-06
0.511193
1.637e-06
0.511193
1.88559e-06
0.511193
1.83285e-06
0.511193
1.65156e-06
0.511193
1.57663e-06
0.511193
1.695e-06
0.511194
1.84453e-06
0.511194
1.82029e-06
0.511195
1.8041e-06
0.511195
1.90444e-06
0.511195
1.86227e-06
0.511196
1.65249e-06
0.511196
1.58048e-06
0.511195
1.70499e-06
0.511195
1.77113e-06
0.511195
1.79711e-06
0.511196
1.87911e-06
0.511196
1.83569e-06
0.511196
1.78955e-06
0.511196
1.85707e-06
0.511197
1.85263e-06
0.511198
1.92412e-06
0.511198
2.09482e-06
0.511198
2.06543e-06
0.511198
1.9866e-06
0.511198
2.0676e-06
0.511198
1.99806e-06
0.511199
1.74213e-06
0.511199
1.51663e-06
0.511199
1.20208e-06
0.5112
1.0014e-06
0.511201
1.1892e-06
0.511201
1.39325e-06
0.511201
1.33131e-06
1.44894e-06
0.511142
3.71864e-08
0.511142
2.65347e-07
0.511143
3.66725e-07
0.511143
3.83595e-07
0.511143
5.31726e-07
0.511144
6.47771e-07
0.511144
5.0755e-07
0.511144
4.74927e-07
0.511144
9.30796e-07
0.511144
1.37933e-06
0.511145
1.43608e-06
0.511145
1.53871e-06
0.511146
1.86952e-06
0.511146
2.06098e-06
0.511146
1.62938e-06
0.511147
1.05195e-06
0.511147
1.24376e-06
0.511146
1.85944e-06
0.511146
2.20249e-06
0.511146
2.35821e-06
0.511146
1.96078e-06
0.511147
1.23302e-06
0.511148
1.14916e-06
0.511148
1.67745e-06
0.511148
2.22457e-06
0.511147
2.77763e-06
0.511147
2.73028e-06
0.511147
1.84979e-06
0.511148
1.34758e-06
0.511149
1.32751e-06
0.511149
1.43453e-06
0.511149
1.27966e-06
0.511149
8.74043e-07
0.511149
8.5261e-07
0.51115
9.91798e-07
0.51115
1.01809e-06
0.51115
1.10694e-06
0.51115
9.85182e-07
0.511151
9.72871e-07
0.511151
1.44311e-06
0.511151
1.86497e-06
0.511151
1.98828e-06
0.511152
1.95605e-06
0.511153
1.79283e-06
0.511154
1.66225e-06
0.511154
1.84646e-06
0.511155
2.13497e-06
0.511155
2.26307e-06
0.511154
2.25405e-06
0.511154
2.02664e-06
0.511155
1.73297e-06
0.511155
1.67978e-06
0.511154
1.83399e-06
0.511154
1.88109e-06
0.511154
1.52018e-06
0.511155
1.15513e-06
0.511155
1.11545e-06
0.511156
1.16588e-06
0.511156
1.52689e-06
0.511157
1.96229e-06
0.511157
1.74329e-06
0.511158
1.34904e-06
0.511158
1.45857e-06
0.511157
1.77988e-06
0.511157
1.82811e-06
0.511157
1.48004e-06
0.511157
1.07478e-06
0.511157
8.51982e-07
0.511158
6.9098e-07
0.511158
6.81179e-07
0.511158
1.01128e-06
0.511158
1.29605e-06
0.511159
1.30821e-06
0.511159
1.5124e-06
0.511159
1.75188e-06
0.51116
1.76809e-06
0.51116
1.88012e-06
0.51116
1.84083e-06
0.511161
1.60817e-06
0.511161
1.54602e-06
0.511162
1.4389e-06
0.511162
1.25287e-06
0.511163
1.1541e-06
0.511163
1.10139e-06
0.511163
1.18451e-06
0.511162
1.3241e-06
0.511162
1.3787e-06
0.511163
1.45817e-06
0.511163
1.69679e-06
0.511163
2.05757e-06
0.511163
2.41412e-06
0.511163
2.72643e-06
0.511163
2.80841e-06
0.511163
2.5598e-06
0.511164
2.14921e-06
0.511164
1.67782e-06
0.511165
1.31965e-06
0.511165
1.13407e-06
0.511166
1.05816e-06
0.511166
1.15514e-06
0.511166
1.23078e-06
0.511166
1.08427e-06
0.511167
9.04378e-07
0.511167
9.47442e-07
0.511167
1.19106e-06
0.511167
1.34089e-06
0.511167
1.36321e-06
0.511168
1.51937e-06
0.511168
1.68997e-06
0.511168
1.63933e-06
0.511168
1.48358e-06
0.511168
1.37458e-06
0.511169
1.42861e-06
0.511169
1.68548e-06
0.511169
1.91235e-06
0.511169
2.05908e-06
0.511169
2.28209e-06
0.511169
2.35824e-06
0.511169
2.25771e-06
0.511169
2.16356e-06
0.511169
1.83465e-06
0.51117
1.36393e-06
0.51117
1.18878e-06
0.511171
1.11281e-06
0.511171
8.53856e-07
0.511171
6.31619e-07
0.511172
6.64577e-07
0.511172
8.68763e-07
0.511172
1.17616e-06
0.511171
1.51427e-06
0.511172
1.74338e-06
0.511172
1.81469e-06
0.511173
1.82366e-06
0.511173
1.93921e-06
0.511174
2.11097e-06
0.511174
2.14541e-06
0.511174
2.11205e-06
0.511174
2.06633e-06
0.511174
2.04067e-06
0.511174
2.11401e-06
0.511174
2.04836e-06
0.511175
1.69366e-06
0.511175
1.25878e-06
0.511176
1.02887e-06
0.511176
1.02687e-06
0.511176
9.56916e-07
0.511176
8.60477e-07
0.511176
8.84096e-07
0.511177
8.42225e-07