/*--------------------------------*- C++ -*----------------------------------*\
| =========                 |                                                 |
| \\      /  F ield         | OpenFOAM: The Open Source CFD Toolbox           |
|  \\    /   O peration     | Version:  2406                                  |
|   \\  /    A nd           | Website:  www.openfoam.com                      |
|    \\/     M anipulation  |                                                 |
\*---------------------------------------------------------------------------*/
FoamFile
{
    version     2.0;
    format      ascii;
    arch        "LSB;label=32;scalar=64";
    class       volScalarField;
    location    "2.1";
    object      p_rgh;
}
// * * * * * * * * * * * * * * * * * * * * * * * * * * * * * * * * * * * * * //

dimensions      [1 -1 -2 0 0 0 0];

internalField   nonuniform List<scalar> 
6250
(
-3.43296
-3227.07
-1037.95
539.134
494.512
25.3773
-135.332
-58.0305
18.4413
24.8271
4.67907
-4.90953
-2.62414
1.08229
1.82165
1.0073
0.473233
0.503786
0.670471
0.723035
0.691907
0.665547
0.661601
0.659376
0.656956
0.653838
0.647589
0.644268
0.642679
0.642681
0.645491
0.648185
0.651205
0.651079
0.65169
0.65484
0.651736
0.648244
0.642059
0.631364
0.630804
0.631546
0.625893
0.625212
0.626567
0.625994
0.625267
0.618396
0.610605
0.611616
0.6186
0.626817
0.626067
0.617727
0.613468
0.607444
0.597175
0.590662
0.590013
0.58902
0.580137
0.565858
0.553478
0.547165
0.543115
0.538531
0.540947
0.548299
0.553553
0.559764
0.564434
0.56211
0.557178
0.552829
0.551198
0.554292
0.555812
0.556235
0.556998
0.550741
0.543221
0.541646
0.540288
0.535938
0.53005
0.527441
0.532062
0.53928
0.543837
0.54555
0.544094
0.541931
0.54235
0.540701
0.535091
0.530578
0.529152
0.529586
0.528369
0.525821
0.525902
0.52526
0.520471
0.514197
0.506732
0.498654
0.494985
0.496683
0.499149
0.499299
0.497181
0.49521
0.492595
0.487236
0.483712
0.484357
0.484726
0.483097
0.481699
0.480486
0.477559
0.473933
0.469845
0.466346
0.465276
0.462252
0.457153
0.453884
0.449457
0.443291
0.438797
0.437931
0.44063
0.443373
0.445945
0.448869
0.44815
0.445243
0.443572
0.439206
0.432289
0.428125
0.424655
0.417158
0.405511
0.393582
0.384939
0.377814
0.373545
0.375328
0.378141
0.378318
0.376573
0.372933
0.369944
0.369434
0.368713
0.365585
0.360534
0.353579
0.346768
0.343057
0.33996
0.335148
0.329429
0.323173
0.31876
0.318346
0.319019
0.318262
0.31645
0.312289
0.307038
0.303177
0.297722
0.290558
0.284276
0.277335
0.270374
0.266122
0.262104
0.255275
0.250008
0.250771
0.253563
0.253356
0.250668
0.249072
0.24858
0.246518
0.244444
0.243736
0.242213
0.23853
0.234395
0.23107
0.225479
0.219286
0.216662
0.21114
0.199536
0.190273
0.187574
0.187546
0.185113
0.179611
0.17348
0.167236
0.160595
0.152832
0.145141
0.139897
0.134141
0.128308
0.125093
0.119169
0.112075
0.108559
0.10378
0.097352
0.0922706
0.0885812
0.0864863
0.0832973
0.0783199
0.0744023
0.0708339
0.0659444
0.0630922
0.0641813
0.0649736
0.0644752
0.0644212
0.0628167
0.0575883
0.0500028
0.0427109
0.0379806
0.0393387
0.0466666
0.0519846
0.0490378
0.0407447
0.0326854
0.0257703
0.0167442
0.00659536
0.00189516
0.00380782
-0.00239167
-3.4627
-3227.13
-1037.99
539.145
494.529
25.3758
-135.339
-58.0308
18.4375
24.82
4.67746
-4.90726
-2.62249
1.08232
1.81903
1.00273
0.46903
0.502912
0.67329
0.726064
0.694824
0.666499
0.658489
0.659373
0.661043
0.653208
0.641398
0.636994
0.638033
0.644571
0.651497
0.64962
0.648069
0.650754
0.652294
0.655608
0.653771
0.644606
0.636524
0.629748
0.626868
0.629154
0.632121
0.632658
0.629552
0.625461
0.621066
0.614728
0.611599
0.613301
0.617364
0.625711
0.627101
0.619571
0.614105
0.604544
0.595008
0.593251
0.592939
0.590083
0.580522
0.567126
0.554664
0.543431
0.537501
0.538117
0.542414
0.547999
0.554065
0.558845
0.560536
0.560491
0.557346
0.551973
0.552119
0.558691
0.562039
0.560029
0.557005
0.55056
0.542157
0.536102
0.532928
0.532713
0.530055
0.527188
0.534395
0.543743
0.5444
0.543871
0.544586
0.542069
0.539743
0.538394
0.536909
0.534898
0.531081
0.529114
0.528467
0.526522
0.526294
0.52553
0.518955
0.508314
0.499633
0.496392
0.498286
0.501852
0.502929
0.501135
0.49685
0.491945
0.489424
0.487828
0.48623
0.485435
0.485548
0.48505
0.482253
0.479506
0.477002
0.473173
0.46864
0.465265
0.465852
0.464475
0.457364
0.45179
0.446587
0.439558
0.43743
0.441119
0.445164
0.445633
0.444862
0.446996
0.447955
0.443878
0.441408
0.442053
0.437758
0.430673
0.425013
0.415368
0.402213
0.3912
0.383085
0.376329
0.372234
0.374254
0.380319
0.382611
0.377692
0.371364
0.368398
0.366619
0.366439
0.367732
0.364674
0.356127
0.347975
0.343135
0.338558
0.332581
0.326285
0.320739
0.317976
0.318801
0.321278
0.322289
0.320162
0.314165
0.304968
0.298028
0.294675
0.290472
0.285575
0.280339
0.272701
0.264397
0.257854
0.254334
0.254373
0.253931
0.252128
0.251725
0.250524
0.250618
0.252678
0.248318
0.23978
0.236662
0.239282
0.240806
0.236997
0.231874
0.226771
0.220125
0.214251
0.206729
0.198104
0.194385
0.193462
0.189882
0.182557
0.176357
0.173244
0.166289
0.157002
0.151173
0.146798
0.144346
0.13973
0.129524
0.121565
0.114911
0.108363
0.107086
0.104129
0.0981518
0.0950983
0.0911807
0.0847952
0.0791952
0.0766133
0.0765329
0.0744611
0.0692725
0.0651612
0.0636638
0.0631384
0.0632838
0.0620818
0.0582528
0.053499
0.0486951
0.0454744
0.0437804
0.0432618
0.0455047
0.047624
0.045913
0.0418541
0.0364235
0.0290643
0.0196004
0.00688398
-0.00245729
-0.0035821
0.000788549
-3.46715
-3227.12
-1037.97
539.159
494.527
25.3702
-135.336
-58.0259
18.4398
24.8198
4.67958
-4.90197
-2.62172
1.07982
1.82265
1.01112
0.474417
0.502635
0.671197
0.725965
0.69287
0.662051
0.659416
0.663516
0.659738
0.651087
0.644017
0.640931
0.641786
0.645452
0.649037
0.650795
0.651086
0.652202
0.653901
0.653495
0.650869
0.647715
0.641121
0.630883
0.627004
0.629781
0.630906
0.630025
0.628007
0.624293
0.621352
0.616572
0.613231
0.617973
0.621837
0.623283
0.624221
0.620065
0.613859
0.604445
0.598072
0.598652
0.594169
0.585727
0.576432
0.563602
0.55033
0.541754
0.539824
0.539811
0.542838
0.552183
0.560737
0.563009
0.561447
0.559054
0.555544
0.551552
0.550426
0.554442
0.559858
0.560348
0.556505
0.550912
0.544238
0.537919
0.533551
0.531749
0.529419
0.528628
0.537242
0.547044
0.545073
0.540872
0.543929
0.544473
0.53885
0.535013
0.535399
0.534496
0.530008
0.528516
0.529763
0.527586
0.525836
0.526375
0.521649
0.510391
0.501693
0.499673
0.499197
0.498508
0.499995
0.50154
0.498205
0.492195
0.488973
0.487817
0.487238
0.485725
0.483556
0.482999
0.481225
0.478323
0.476724
0.475042
0.472048
0.468192
0.466885
0.464826
0.456833
0.449516
0.445201
0.44093
0.439424
0.441406
0.444555
0.446467
0.446766
0.447431
0.447013
0.442815
0.438554
0.439304
0.439406
0.433009
0.424442
0.415417
0.403308
0.390592
0.382291
0.377707
0.374602
0.375723
0.379984
0.381091
0.37675
0.371787
0.370763
0.369827
0.366369
0.3638
0.361186
0.355597
0.348556
0.342692
0.337658
0.331874
0.326219
0.322517
0.320613
0.320692
0.322552
0.321578
0.317034
0.312537
0.306245
0.299392
0.295937
0.29091
0.283059
0.278704
0.274531
0.265209
0.25673
0.253217
0.252978
0.254173
0.253693
0.252446
0.252205
0.251597
0.250439
0.246971
0.241286
0.238286
0.239891
0.240943
0.236442
0.231693
0.229709
0.223782
0.212972
0.20235
0.196527
0.195479
0.193556
0.189087
0.183189
0.177535
0.173736
0.166913
0.157514
0.151975
0.147852
0.143607
0.139047
0.129456
0.119584
0.114005
0.109642
0.106739
0.10343
0.0995257
0.0977031
0.0933004
0.0848179
0.0784323
0.0762887
0.0744673
0.0716435
0.0692459
0.0662649
0.0638878
0.0643663
0.0649271
0.0613531
0.0559169
0.0524688
0.0483107
0.0443832
0.0451614
0.0481567
0.050084
0.0498207
0.0451573
0.0383051
0.032446
0.0254829
0.016847
0.00764545
0.0010247
-0.000199411
0.00138649
-3.46694
-3227.13
-1037.98
539.144
494.518
25.371
-135.337
-58.0316
18.4345
24.8195
4.67917
-4.90768
-2.6287
1.07687
1.82362
1.01022
0.470281
0.502368
0.673345
0.723173
0.691532
0.663924
0.657257
0.662385
0.661555
0.651311
0.643576
0.640639
0.64008
0.642644
0.648355
0.652283
0.650928
0.650469
0.651733
0.6501
0.647805
0.643884
0.635905
0.630872
0.6304
0.62991
0.63023
0.629694
0.626009
0.621634
0.619613
0.618624
0.618368
0.621629
0.621868
0.621001
0.623914
0.619242
0.608029
0.600503
0.599726
0.600646
0.594946
0.586403
0.575627
0.561603
0.55055
0.542433
0.539659
0.542895
0.54678
0.551575
0.556298
0.558215
0.558749
0.558011
0.5552
0.553597
0.553439
0.554544
0.559036
0.560516
0.556058
0.551012
0.544962
0.537576
0.531837
0.529505
0.529521
0.530239
0.534473
0.54129
0.544001
0.544229
0.545814
0.544308
0.53903
0.535197
0.533307
0.53178
0.530976
0.530867
0.530589
0.529768
0.527643
0.52364
0.51738
0.508081
0.500875
0.49983
0.500017
0.49964
0.500187
0.499966
0.497371
0.493342
0.490004
0.487678
0.486542
0.485504
0.484543
0.484211
0.48111
0.47763
0.476208
0.473843
0.471825
0.468705
0.465156
0.464064
0.459273
0.450007
0.44258
0.44034
0.44196
0.442036
0.443179
0.447308
0.447643
0.446475
0.447408
0.444158
0.438181
0.437188
0.437185
0.432484
0.424318
0.413556
0.402555
0.391798
0.382484
0.379435
0.378805
0.377039
0.377514
0.377696
0.374227
0.371105
0.371864
0.372579
0.368461
0.36211
0.357194
0.353287
0.349185
0.343912
0.337398
0.330798
0.32523
0.322319
0.32206
0.322772
0.323359
0.32103
0.316049
0.311743
0.306326
0.300168
0.29581
0.290005
0.282432
0.276414
0.270927
0.264309
0.258492
0.256424
0.257653
0.256778
0.252126
0.250413
0.252379
0.251716
0.248919
0.246669
0.243982
0.240603
0.239066
0.238506
0.233829
0.229044
0.227991
0.223128
0.212497
0.202609
0.198512
0.198219
0.195426
0.189786
0.182662
0.176134
0.172659
0.166573
0.157329
0.151355
0.146812
0.142787
0.138863
0.129085
0.11881
0.115399
0.112255
0.106284
0.101098
0.0974358
0.0945628
0.0913907
0.0875358
0.0831458
0.0791227
0.0753029
0.0716196
0.0689381
0.0646127
0.0609225
0.0626511
0.0642939
0.0606216
0.0554322
0.0516841
0.0477611
0.0452602
0.0463239
0.0482292
0.049469
0.0498044
0.0465541
0.039608
0.0325132
0.0254656
0.017405
0.00962621
0.00386526
0.00167026
0.00114697
-3.46968
-3227.13
-1037.98
539.144
494.527
25.3759
-135.339
-58.0332
18.4381
24.8247
4.6801
-4.90936
-2.626
1.08276
1.8253
1.01028
0.472862
0.50043
0.671581
0.729183
0.691927
0.658461
0.660393
0.666816
0.660819
0.6525
0.644968
0.64025
0.642264
0.646236
0.650178
0.651668
0.650275
0.651213
0.653432
0.653706
0.648395
0.638458
0.635285
0.636604
0.632765
0.6309
0.631431
0.627374
0.625736
0.624476
0.620854
0.622539
0.622949
0.619315
0.619633
0.624038
0.625303
0.616793
0.60752
0.605121
0.603784
0.599849
0.591083
0.581586
0.573478
0.56244
0.551488
0.544085
0.542175
0.544951
0.548932
0.553367
0.556932
0.559788
0.559938
0.555312
0.552537
0.554107
0.554725
0.555002
0.559237
0.562138
0.557179
0.548602
0.541652
0.537118
0.532973
0.529153
0.530695
0.535134
0.536283
0.538876
0.544876
0.547131
0.54468
0.541336
0.538543
0.535337
0.531771
0.531562
0.531902
0.529801
0.531311
0.534025
0.530027
0.521902
0.514619
0.508106
0.502732
0.500023
0.500697
0.50315
0.502424
0.499213
0.496879
0.49354
0.490117
0.487383
0.485233
0.485712
0.485392
0.483071
0.481858
0.479553
0.475039
0.472961
0.473437
0.470383
0.465792
0.463672
0.458581
0.450324
0.444079
0.442016
0.443329
0.443228
0.444019
0.448274
0.448868
0.445339
0.442673
0.44179
0.44097
0.437995
0.435276
0.432768
0.424794
0.413955
0.404519
0.392398
0.381634
0.37946
0.379819
0.379207
0.37859
0.376282
0.375019
0.373821
0.370645
0.369494
0.367544
0.361314
0.356251
0.353596
0.349432
0.343867
0.337326
0.329735
0.324617
0.323711
0.324024
0.324182
0.324412
0.322334
0.31671
0.310316
0.305338
0.300279
0.294554
0.289921
0.28388
0.275625
0.269548
0.263795
0.258476
0.258202
0.258693
0.256492
0.25406
0.252975
0.253707
0.252681
0.247654
0.243045
0.242298
0.242019
0.240313
0.239946
0.236939
0.229877
0.225026
0.219756
0.211227
0.203821
0.200042
0.199235
0.196753
0.190982
0.184716
0.177384
0.169146
0.162374
0.157668
0.15486
0.15134
0.144359
0.135263
0.126113
0.119136
0.115328
0.110828
0.105777
0.103644
0.100912
0.0948515
0.0894893
0.0863773
0.0828125
0.0794492
0.0771188
0.0735184
0.0691045
0.0647186
0.0611823
0.0598367
0.0594705
0.0591769
0.0572217
0.0535083
0.0503105
0.0478117
0.0476621
0.0496985
0.0495568
0.0471825
0.045238
0.0415081
0.0344188
0.025549
0.0155513
0.00881849
0.0084865
0.00733058
0.00249278
-3.47001
-3227.14
-1037.98
539.146
494.528
25.3716
-135.343
-58.0349
18.4374
24.8204
4.67323
-4.91221
-2.62517
1.08386
1.82537
1.00655
0.470358
0.504046
0.67259
0.722883
0.687901
0.659742
0.657684
0.662539
0.662073
0.654302
0.647818
0.645536
0.641966
0.642557
0.647939
0.648343
0.647878
0.651001
0.652586
0.650152
0.644845
0.638696
0.634891
0.63412
0.630654
0.627912
0.629484
0.62862
0.625767
0.623155
0.622813
0.626
0.622406
0.617231
0.621999
0.625827
0.621633
0.614252
0.608152
0.604478
0.601049
0.597063
0.590638
0.582424
0.572531
0.559681
0.550356
0.545957
0.54459
0.547373
0.551321
0.553825
0.554751
0.556472
0.558759
0.556475
0.55105
0.550249
0.554963
0.557439
0.558464
0.561243
0.557253
0.54739
0.540958
0.535713
0.529587
0.52774
0.531821
0.536872
0.538031
0.538264
0.542897
0.546434
0.543482
0.539942
0.538003
0.534484
0.531333
0.53105
0.532224
0.532483
0.531629
0.531197
0.528922
0.52151
0.513128
0.50767
0.50361
0.501133
0.501043
0.502297
0.501642
0.498572
0.496258
0.493877
0.490736
0.488064
0.486263
0.485417
0.483492
0.480851
0.479346
0.478923
0.478545
0.475576
0.472105
0.469862
0.465557
0.461119
0.457352
0.451502
0.445279
0.44254
0.444736
0.446289
0.445
0.446334
0.447326
0.44398
0.440991
0.440812
0.440756
0.438198
0.434217
0.430827
0.424351
0.412687
0.402412
0.39464
0.385849
0.381208
0.380881
0.378499
0.376059
0.375402
0.374329
0.372637
0.370837
0.369708
0.367291
0.360856
0.353935
0.350289
0.347834
0.343426
0.336768
0.330062
0.326103
0.32596
0.326587
0.324727
0.322389
0.320271
0.316063
0.311186
0.306444
0.299925
0.292682
0.287475
0.283169
0.276101
0.267375
0.262054
0.2619
0.26238
0.259127
0.255464
0.253777
0.252699
0.253328
0.253109
0.248683
0.244202
0.243317
0.241935
0.238099
0.236779
0.23581
0.231225
0.225458
0.217147
0.208287
0.204342
0.2039
0.202512
0.19621
0.188154
0.182973
0.177558
0.170752
0.163543
0.157049
0.154319
0.15205
0.1435
0.13115
0.122979
0.119794
0.116434
0.11144
0.106857
0.102695
0.0985828
0.0951152
0.0913038
0.0872134
0.0832927
0.0796476
0.0769014
0.0724597
0.0666167
0.0626665
0.0606619
0.0605652
0.0608576
0.0595849
0.0563194
0.0520198
0.0494495
0.0489802
0.0498307
0.0511411
0.0506513
0.047054
0.0427631
0.0396713
0.0351069
0.0280048
0.019
0.0118909
0.00934471
0.00651092
0.00199032
-3.47262
-3227.14
-1037.98
539.144
494.524
25.3729
-135.341
-58.0338
18.4374
24.8197
4.67466
-4.90858
-2.62275
1.08386
1.82403
1.00753
0.473929
0.503298
0.667244
0.722258
0.689368
0.661336
0.664427
0.665086
0.657316
0.652179
0.64809
0.647198
0.645861
0.644199
0.647184
0.647234
0.649359
0.654225
0.65177
0.646217
0.64242
0.6396
0.638681
0.637679
0.632635
0.62686
0.628082
0.630305
0.628399
0.627046
0.626604
0.625232
0.622563
0.621156
0.623021
0.623822
0.620642
0.614421
0.609804
0.607693
0.600941
0.593299
0.589049
0.581531
0.5708
0.561197
0.553988
0.549561
0.547933
0.548567
0.550364
0.553355
0.555835
0.558206
0.559606
0.555828
0.550718
0.549876
0.553649
0.559366
0.561689
0.559175
0.553889
0.547004
0.539715
0.534763
0.532257
0.53003
0.531505
0.536932
0.539805
0.540787
0.544016
0.546042
0.542961
0.538383
0.53581
0.533593
0.531251
0.531617
0.534166
0.53482
0.533073
0.531057
0.527709
0.520306
0.512219
0.507947
0.505078
0.502519
0.502593
0.503963
0.502763
0.499313
0.496374
0.49336
0.49089
0.48901
0.486104
0.485113
0.484962
0.481549
0.478514
0.479259
0.479698
0.475735
0.471662
0.470203
0.46574
0.46053
0.458567
0.454141
0.447783
0.444556
0.4448
0.446598
0.446934
0.446062
0.445667
0.443866
0.440234
0.439345
0.441228
0.438998
0.43385
0.43026
0.423467
0.412205
0.402701
0.396171
0.390208
0.384583
0.3796
0.376553
0.375911
0.375609
0.37548
0.374683
0.370895
0.366523
0.363814
0.360058
0.3551
0.351254
0.347673
0.342246
0.335756
0.330742
0.327814
0.327292
0.328041
0.326153
0.322821
0.320748
0.316873
0.310767
0.305606
0.300029
0.292161
0.285851
0.282075
0.27534
0.26726
0.263977
0.263921
0.262907
0.259656
0.25665
0.255585
0.254144
0.25255
0.251514
0.249465
0.245906
0.242871
0.242321
0.240774
0.236596
0.233162
0.23037
0.224923
0.21568
0.208295
0.206097
0.205204
0.203511
0.198003
0.189408
0.183264
0.177594
0.170371
0.163398
0.157776
0.154319
0.150042
0.141808
0.132412
0.125559
0.120249
0.114776
0.110741
0.107691
0.10285
0.0978795
0.0951544
0.0919276
0.08809
0.0848448
0.0796479
0.0750611
0.0720135
0.0667064
0.0621889
0.0607913
0.0601369
0.0605851
0.0620913
0.0590965
0.0520928
0.0491057
0.0495852
0.050409
0.05161
0.0508218
0.0479943
0.0451229
0.0406966
0.0327877
0.025759
0.0215929
0.0156593
0.00956838
0.00504541
0.00132618
-3.47388
-3227.14
-1037.99
539.142
494.526
25.3755
-135.339
-58.0353
18.433
24.8187
4.67598
-4.91021
-2.62612
1.08253
1.82577
1.00843
0.471937
0.501468
0.665167
0.719891
0.693256
0.664562
0.65539
0.658127
0.661223
0.657492
0.653287
0.64777
0.640249
0.641147
0.649418
0.650567
0.650229
0.651237
0.646351
0.643364
0.641972
0.638869
0.637453
0.634952
0.629979
0.626713
0.628437
0.631697
0.632363
0.628925
0.622468
0.620955
0.624919
0.625096
0.622515
0.621661
0.61926
0.614901
0.609614
0.602687
0.597731
0.595563
0.589039
0.578194
0.569346
0.560758
0.55399
0.551832
0.550647
0.550939
0.551725
0.551852
0.554394
0.557293
0.557834
0.555447
0.550168
0.547754
0.554188
0.56211
0.560673
0.55506
0.551234
0.545311
0.53775
0.532622
0.530899
0.531982
0.534115
0.537438
0.542134
0.54245
0.539453
0.541169
0.54281
0.539108
0.53447
0.531771
0.531486
0.532467
0.533817
0.535456
0.534214
0.52948
0.52427
0.517767
0.511085
0.508084
0.507279
0.506205
0.503897
0.501195
0.500548
0.499342
0.495495
0.492666
0.492034
0.490586
0.487487
0.48427
0.481296
0.479361
0.479652
0.480062
0.47918
0.476616
0.471511
0.467165
0.464658
0.461446
0.457806
0.453835
0.450965
0.448655
0.446262
0.446865
0.446603
0.44276
0.44165
0.44321
0.441906
0.439199
0.438891
0.438379
0.434387
0.428109
0.420609
0.411839
0.403243
0.396902
0.392321
0.386867
0.381005
0.377224
0.374742
0.372791
0.37274
0.372979
0.371196
0.367272
0.362777
0.3586
0.353598
0.348442
0.345138
0.341254
0.335872
0.332586
0.330396
0.328833
0.329047
0.326257
0.321507
0.31943
0.316174
0.310612
0.305309
0.299205
0.29192
0.284729
0.278768
0.273392
0.268807
0.266948
0.265883
0.263153
0.258497
0.255001
0.256069
0.256303
0.252384
0.250266
0.250053
0.247155
0.243685
0.242922
0.240518
0.234918
0.231311
0.228626
0.221876
0.213616
0.210042
0.209467
0.20753
0.203859
0.196225
0.187851
0.183106
0.177317
0.170632
0.164909
0.158444
0.153179
0.147516
0.139604
0.131763
0.124839
0.119798
0.116066
0.111499
0.106382
0.101275
0.0968508
0.0946491
0.0927765
0.0895444
0.0858753
0.0796054
0.072515
0.0681442
0.0645708
0.0625118
0.0621622
0.0616802
0.062033
0.062381
0.0590657
0.0527297
0.0492368
0.0492863
0.0507615
0.0522352
0.0506083
0.0473167
0.0439149
0.0384572
0.0321519
0.0277358
0.0233101
0.0160838
0.0103235
0.00574139
0.00144562
-3.47312
-3227.14
-1037.99
539.144
494.526
25.375
-135.339
-58.0351
18.4356
24.8217
4.67541
-4.91253
-2.62531
1.0836
1.82405
1.00797
0.470512
0.498886
0.668739
0.724464
0.688688
0.659614
0.660661
0.664375
0.663397
0.657168
0.646498
0.642173
0.643178
0.646165
0.651105
0.652279
0.647675
0.646804
0.647636
0.645312
0.640157
0.637778
0.637732
0.634915
0.632697
0.630179
0.628271
0.632642
0.635725
0.630718
0.624197
0.622188
0.624051
0.626329
0.62481
0.621028
0.618416
0.616267
0.611477
0.602522
0.594476
0.5917
0.588563
0.58115
0.572338
0.56247
0.554597
0.553011
0.553628
0.553085
0.551531
0.552233
0.556577
0.557771
0.555396
0.553993
0.552524
0.551319
0.554138
0.559481
0.560095
0.55496
0.548683
0.542516
0.537183
0.534225
0.53415
0.535756
0.536309
0.537005
0.540802
0.542626
0.540143
0.540756
0.541808
0.537977
0.534032
0.532141
0.532063
0.533517
0.534528
0.536063
0.535409
0.528842
0.522197
0.51815
0.513072
0.508777
0.506777
0.506488
0.505683
0.502815
0.501166
0.499819
0.496128
0.493239
0.491981
0.490842
0.489061
0.485092
0.480899
0.480074
0.48106
0.48055
0.479047
0.476171
0.470348
0.467004
0.467411
0.464104
0.458401
0.454749
0.452564
0.450754
0.447719
0.445976
0.446968
0.445303
0.44167
0.441865
0.442159
0.43848
0.436856
0.437783
0.434677
0.428034
0.420356
0.412683
0.405747
0.398593
0.393047
0.387477
0.379512
0.375653
0.376231
0.376233
0.375466
0.372974
0.368088
0.363893
0.360198
0.357483
0.355468
0.350317
0.344128
0.339997
0.335918
0.333475
0.333389
0.331804
0.329385
0.326827
0.322404
0.318399
0.315652
0.310836
0.303917
0.297902
0.292424
0.285355
0.278464
0.273427
0.269684
0.267341
0.26574
0.263544
0.259857
0.256496
0.256609
0.256871
0.254501
0.251926
0.24973
0.247332
0.244776
0.242275
0.239998
0.236434
0.231412
0.22645
0.220221
0.212632
0.209767
0.211604
0.20994
0.204252
0.196859
0.189214
0.183865
0.177968
0.171007
0.165034
0.158461
0.151859
0.145455
0.13913
0.133178
0.12603
0.11955
0.115407
0.111307
0.106738
0.102635
0.0983032
0.094906
0.092367
0.0881546
0.0838852
0.0789198
0.0724071
0.0682036
0.0653581
0.0624753
0.0631208
0.0657106
0.0644318
0.0603021
0.057148
0.0540283
0.0521359
0.0514121
0.0506615
0.0517398
0.0515354
0.0475798
0.0421244
0.0376213
0.0338787
0.0283793
0.0221429
0.016735
0.0104306
0.00411219
0.00109945
-3.47504
-3227.14
-1037.99
539.144
494.525
25.3744
-135.339
-58.0329
18.4359
24.8168
4.67151
-4.90964
-2.62258
1.08171
1.82383
1.00786
0.471186
0.504413
0.669947
0.720361
0.686279
0.655454
0.654527
0.666437
0.667329
0.654947
0.648259
0.644245
0.641937
0.647665
0.652623
0.649503
0.646083
0.645728
0.644051
0.643431
0.642976
0.638584
0.634241
0.631985
0.630301
0.631464
0.635249
0.635857
0.632887
0.627945
0.623306
0.622158
0.625315
0.627531
0.623873
0.62002
0.618557
0.614413
0.608277
0.601246
0.594578
0.59084
0.586444
0.579261
0.572375
0.56437
0.556224
0.553108
0.553493
0.553529
0.552903
0.553129
0.555889
0.55709
0.55393
0.551671
0.552956
0.55448
0.55459
0.554751
0.555509
0.553587
0.547462
0.540215
0.535359
0.533497
0.534195
0.537726
0.540671
0.538923
0.537282
0.539333
0.540431
0.540187
0.539457
0.536791
0.533564
0.530367
0.530633
0.535008
0.536426
0.535475
0.533718
0.526176
0.518367
0.516256
0.514627
0.512222
0.509949
0.506922
0.504202
0.501166
0.498471
0.497953
0.496963
0.494736
0.494107
0.493195
0.488684
0.48246
0.478557
0.47867
0.481643
0.482328
0.477903
0.473738
0.470729
0.46688
0.465721
0.464157
0.45871
0.455046
0.454374
0.453508
0.449832
0.4457
0.445339
0.444695
0.440904
0.439868
0.441017
0.437797
0.435419
0.437272
0.434311
0.426137
0.418761
0.411888
0.406125
0.400056
0.393884
0.389468
0.382775
0.375587
0.373101
0.373177
0.373413
0.371766
0.367728
0.364314
0.360126
0.355166
0.35203
0.347936
0.342972
0.339906
0.336495
0.334857
0.336297
0.334108
0.328956
0.325569
0.321322
0.31684
0.314672
0.310761
0.303504
0.296761
0.291062
0.28444
0.277933
0.272953
0.270092
0.268824
0.265838
0.262338
0.260922
0.258316
0.25591
0.256297
0.254793
0.251593
0.250482
0.249868
0.24707
0.241845
0.237056
0.233888
0.229488
0.223615
0.218365
0.213993
0.213331
0.214266
0.209442
0.2023
0.196042
0.188871
0.183427
0.178023
0.170603
0.165231
0.159936
0.151769
0.142692
0.13595
0.131405
0.126498
0.12161
0.116434
0.109641
0.10408
0.101646
0.0994101
0.0963496
0.0930256
0.0877126
0.0816412
0.0765435
0.0708815
0.0662056
0.0634256
0.062889
0.065886
0.0681795
0.065531
0.0604863
0.056704
0.0531042
0.0507299
0.0513501
0.0529548
0.0541369
0.0511946
0.0441997
0.0410497
0.0402317
0.0339311
0.0256126
0.0208829
0.015656
0.00955369
0.0060133
0.00281487
-3.47337
-3227.14
-1037.99
539.143
494.525
25.3749
-135.338
-58.0334
18.4338
24.8167
4.6739
-4.9078
-2.62061
1.08166
1.82163
1.01068
0.473017
0.501015
0.670171
0.72066
0.680797
0.651359
0.659233
0.671805
0.668909
0.654901
0.643638
0.641591
0.643537
0.648282
0.651487
0.64904
0.64611
0.644789
0.64346
0.6444
0.642316
0.634964
0.633753
0.635628
0.633358
0.632859
0.634329
0.634866
0.634823
0.630767
0.62526
0.624248
0.624984
0.625198
0.623041
0.620389
0.620195
0.61679
0.608082
0.59871
0.592403
0.590603
0.587897
0.580538
0.572956
0.56658
0.559287
0.554754
0.553558
0.553165
0.555582
0.55756
0.556018
0.554221
0.553497
0.553541
0.554698
0.556435
0.555143
0.552215
0.552515
0.551968
0.545054
0.538422
0.537682
0.537886
0.536866
0.538822
0.542648
0.539995
0.535431
0.53818
0.54015
0.538158
0.538544
0.53754
0.533792
0.531436
0.531741
0.535037
0.536786
0.534588
0.531409
0.526154
0.520891
0.518944
0.516217
0.512569
0.510005
0.505943
0.502556
0.502098
0.501347
0.499702
0.49841
0.496987
0.495023
0.491609
0.486973
0.482937
0.480485
0.480961
0.483709
0.482573
0.475556
0.471089
0.471226
0.469002
0.46624
0.464064
0.460308
0.458923
0.457706
0.453257
0.449526
0.446648
0.444176
0.444101
0.442947
0.440394
0.440475
0.439404
0.436005
0.43436
0.431294
0.425866
0.419826
0.412924
0.408442
0.403213
0.393564
0.387062
0.38262
0.377487
0.376488
0.37558
0.372979
0.370574
0.365897
0.361434
0.358403
0.354229
0.351774
0.348969
0.343662
0.340541
0.338666
0.336116
0.336294
0.335604
0.330532
0.325858
0.321989
0.316732
0.312905
0.309698
0.303193
0.295762
0.290582
0.285267
0.278675
0.273708
0.271211
0.269473
0.266332
0.262632
0.260929
0.259019
0.256862
0.257234
0.25691
0.254361
0.251829
0.249187
0.24658
0.242439
0.236831
0.233552
0.229305
0.221368
0.216282
0.215566
0.215725
0.214526
0.209054
0.201795
0.196054
0.190452
0.185493
0.179103
0.171186
0.165224
0.159161
0.150965
0.143108
0.136188
0.130087
0.125364
0.121475
0.116598
0.111011
0.106304
0.102511
0.0995874
0.0972069
0.0933624
0.0859375
0.0784886
0.0752165
0.0712007
0.0654673
0.0638259
0.0658195
0.068009
0.06889
0.0658354
0.060072
0.0564561
0.0538847
0.051484
0.0532504
0.0560346
0.0539977
0.0486988
0.0446078
0.0430868
0.0398499
0.033208
0.0261057
0.0201028
0.0152211
0.00961503
0.00438103
0.00151001
-3.4742
-3227.14
-1037.99
539.142
494.526
25.3774
-135.337
-58.0356
18.4337
24.8181
4.67456
-4.90762
-2.62384
1.0809
1.82597
1.01098
0.473063
0.504114
0.66625
0.715653
0.685598
0.657039
0.657362
0.665765
0.662055
0.651505
0.64671
0.646784
0.646515
0.647048
0.648392
0.647917
0.64633
0.645989
0.64477
0.641412
0.639531
0.636505
0.631763
0.630993
0.633782
0.637147
0.637558
0.635575
0.632473
0.628149
0.62833
0.629702
0.62417
0.620097
0.621169
0.620506
0.618622
0.613586
0.605875
0.60071
0.59488
0.5885
0.584716
0.580156
0.573585
0.567058
0.560179
0.555256
0.553988
0.554166
0.555899
0.557574
0.556531
0.554883
0.552644
0.552005
0.554766
0.555863
0.553085
0.55004
0.549953
0.549358
0.543773
0.538189
0.537088
0.538095
0.538433
0.538518
0.540702
0.540726
0.536725
0.536692
0.539429
0.538612
0.536194
0.532755
0.531022
0.532743
0.533129
0.53514
0.537245
0.532484
0.527703
0.524973
0.520545
0.518542
0.517714
0.514957
0.511076
0.505263
0.501091
0.500465
0.499749
0.499058
0.499852
0.499734
0.496826
0.491319
0.485316
0.481275
0.479888
0.481009
0.48242
0.481111
0.476435
0.471931
0.470545
0.468768
0.464562
0.461884
0.461911
0.46117
0.457826
0.454446
0.452783
0.448766
0.442981
0.441963
0.442004
0.438093
0.437206
0.439338
0.437476
0.434436
0.430554
0.423647
0.417437
0.411722
0.408026
0.404957
0.396068
0.387431
0.383389
0.378758
0.375197
0.372441
0.369439
0.368214
0.365665
0.362094
0.358255
0.352736
0.349058
0.347171
0.342943
0.340151
0.339814
0.339007
0.338419
0.335619
0.329189
0.324031
0.321131
0.317151
0.312415
0.30773
0.301639
0.295467
0.290292
0.283823
0.277388
0.27409
0.271982
0.269767
0.267197
0.263499
0.261072
0.260334
0.257836
0.255565
0.256161
0.255849
0.253244
0.250325
0.247387
0.242744
0.235762
0.230514
0.225322
0.218388
0.216929
0.218434
0.216514
0.214267
0.209145
0.200489
0.194378
0.190033
0.185196
0.180093
0.173558
0.165195
0.156511
0.148812
0.141822
0.134955
0.129817
0.125749
0.121831
0.117185
0.110338
0.104137
0.101474
0.100764
0.0985437
0.0929734
0.0845152
0.0769955
0.0736347
0.0698288
0.0652053
0.0650695
0.0665786
0.0667688
0.0674013
0.0655441
0.0605974
0.0563466
0.053393
0.0536754
0.0577765
0.0574855
0.0509046
0.0479317
0.0473654
0.0430035
0.0383567
0.0335566
0.0263633
0.0180663
0.0132107
0.00958733
0.00531838
0.00227222
-3.47557
-3227.14
-1037.99
539.141
494.528
25.3777
-135.339
-58.0348
18.4367
24.8203
4.67657
-4.90741
-2.6255
1.08078
1.82767
1.01157
0.469381
0.499773
0.668968
0.718855
0.685989
0.658226
0.656169
0.664965
0.66449
0.652762
0.645222
0.644228
0.644917
0.647862
0.64692
0.645195
0.648522
0.648832
0.643415
0.638199
0.637207
0.63712
0.634676
0.6346
0.63615
0.636441
0.636286
0.635424
0.634438
0.632559
0.630422
0.627497
0.621655
0.619855
0.622753
0.621814
0.618945
0.613794
0.604613
0.598148
0.593913
0.589037
0.585487
0.581807
0.575668
0.568102
0.560864
0.556416
0.556465
0.557054
0.557343
0.558907
0.55653
0.553376
0.554628
0.555342
0.554568
0.554025
0.553083
0.550355
0.54613
0.543951
0.54339
0.542072
0.540653
0.53972
0.539292
0.539378
0.540575
0.541345
0.537982
0.536231
0.538429
0.53716
0.533832
0.532625
0.532725
0.534028
0.534204
0.533958
0.534362
0.531614
0.528341
0.526117
0.523178
0.521407
0.518609
0.513996
0.510018
0.505239
0.501938
0.502423
0.501979
0.500599
0.501089
0.500596
0.497259
0.490603
0.483214
0.481942
0.484008
0.483358
0.481714
0.478743
0.474646
0.47293
0.47193
0.468947
0.465241
0.463001
0.463036
0.463004
0.460012
0.455288
0.451672
0.449179
0.445445
0.441645
0.440697
0.439991
0.438857
0.438844
0.436731
0.432237
0.42836
0.424341
0.419757
0.414167
0.408721
0.404341
0.395909
0.387126
0.384464
0.381703
0.377087
0.372695
0.368421
0.366674
0.364431
0.359939
0.356373
0.35203
0.348659
0.347515
0.344608
0.341953
0.341936
0.340942
0.337947
0.334574
0.330761
0.325561
0.320422
0.316816
0.311815
0.3052
0.300674
0.296733
0.290335
0.283565
0.278535
0.274601
0.272461
0.271074
0.268381
0.264458
0.261178
0.260264
0.259623
0.258216
0.25831
0.257695
0.253949
0.24898
0.245504
0.243531
0.23823
0.229943
0.222782
0.217691
0.21746
0.219428
0.218061
0.21357
0.206238
0.198912
0.195634
0.192573
0.187712
0.181834
0.174258
0.165351
0.155838
0.147511
0.140594
0.134395
0.129724
0.125516
0.121457
0.117658
0.111885
0.106087
0.103196
0.101228
0.0974494
0.0913746
0.0844457
0.0771109
0.0710335
0.0682841
0.0675851
0.0687954
0.0688916
0.0665392
0.0650526
0.0639256
0.0612265
0.0577046
0.0564999
0.058276
0.058685