/*--------------------------------*- C++ -*----------------------------------*\
| =========                 |                                                 |
| \\      /  F ield         | OpenFOAM: The Open Source CFD Toolbox           |
|  \\    /   O peration     | Version:  2406                                  |
|   \\  /    A nd           | Website:  www.openfoam.com                      |
|    \\/     M anipulation  |                                                 |
\*---------------------------------------------------------------------------*/
FoamFile
{
    version     2.0;
    format      ascii;
    arch        "LSB;label=32;scalar=64";
    class       surfaceScalarField;
    location    "2.1";
    object      phi;
}
// * * * * * * * * * * * * * * * * * * * * * * * * * * * * * * * * * * * * * //

dimensions      [0 3 -1 0 0 0 0];

oriented        oriented;

internalField   nonuniform List<scalar> 
12225
(
0.511138
1.63142e-06
0.511131
6.44105e-06
0.511124
7.73542e-06
0.511118
5.25413e-06
0.511114
4.0555e-06
0.51111
4.74222e-06
0.511104
5.43069e-06
0.511099
5.36698e-06
0.511093
5.44025e-06
0.511088
5.55541e-06
0.511082
5.36936e-06
0.511077
5.16152e-06
0.511072
5.17714e-06
0.511067
5.38895e-06
0.511061
5.65075e-06
0.511055
5.84713e-06
0.511049
5.8786e-06
0.511044
5.67043e-06
0.511038
5.32167e-06
0.511033
4.87986e-06
0.511029
4.39017e-06
0.511025
4.45532e-06
0.51102
5.01621e-06
0.511015
5.05906e-06
0.51101
4.8815e-06
0.511004
5.22345e-06
0.510999
5.65123e-06
0.510993
6.07519e-06
0.510986
6.34453e-06
0.51098
5.93705e-06
0.510975
5.33596e-06
0.51097
5.21659e-06
0.510965
5.33013e-06
0.510959
5.45587e-06
0.510953
5.67824e-06
0.510948
5.66519e-06
0.510942
5.6844e-06
0.510936
5.97745e-06
0.51093
5.77392e-06
0.510925
5.4638e-06
0.510919
5.79736e-06
0.510913
6.01772e-06
0.510907
5.61227e-06
0.510902
5.14462e-06
0.510897
5.10411e-06
0.510892
5.42579e-06
0.510886
5.66861e-06
0.510881
5.46771e-06
0.510875
5.10941e-06
0.51087
5.0247e-06
0.510865
5.14382e-06
0.51086
5.33329e-06
0.510854
5.52067e-06
0.510849
5.61702e-06
0.510843
5.80101e-06
0.510837
5.98413e-06
0.510831
5.73288e-06
0.510826
5.25405e-06
0.510821
5.02398e-06
0.510816
5.13547e-06
0.510811
5.26798e-06
0.510806
5.0076e-06
0.510801
4.83713e-06
0.510796
5.25104e-06
0.51079
5.49391e-06
0.510785
5.28995e-06
0.510779
5.3294e-06
0.510774
5.69071e-06
0.510768
5.88283e-06
0.510762
5.93388e-06
0.510756
5.87762e-06
0.51075
5.62588e-06
0.510745
5.49233e-06
0.510739
5.4518e-06
0.510734
5.33565e-06
0.510729
5.13911e-06
0.510724
4.82754e-06
0.510719
4.76121e-06
0.510714
5.00958e-06
0.510709
5.16717e-06
0.510704
5.24385e-06
0.510698
5.48777e-06
0.510693
5.79165e-06
0.510687
5.84693e-06
0.510681
5.83242e-06
0.510675
5.92835e-06
0.510669
5.75465e-06
0.510664
5.47491e-06
0.510658
5.48625e-06
0.510653
5.48804e-06
0.510648
5.30233e-06
0.510642
5.17777e-06
0.510637
5.30332e-06
0.510632
5.49796e-06
0.510626
5.4785e-06
0.510621
5.41655e-06
0.510615
5.4596e-06
0.51061
5.4222e-06
0.510605
5.25608e-06
0.510599
5.0767e-06
0.510594
5.07159e-06
0.510589
5.30977e-06
0.510583
5.72613e-06
0.510577
6.22698e-06
0.510571
6.45688e-06
0.510565
6.12598e-06
0.510559
5.55074e-06
0.510554
5.22689e-06
0.510549
5.22098e-06
0.510543
5.28701e-06
0.510538
5.38677e-06
0.510532
5.60737e-06
0.510527
5.77947e-06
0.510521
5.63851e-06
0.510516
5.31728e-06
0.51051
5.15362e-06
0.510505
5.05677e-06
0.5105
4.97019e-06
0.510495
5.12761e-06
0.51049
5.37201e-06
0.510484
5.4899e-06
0.510479
5.59093e-06
0.510473
5.74068e-06
0.510467
5.77572e-06
0.510462
5.54009e-06
0.510457
5.20548e-06
0.510452
5.02474e-06
0.510446
5.08885e-06
0.510441
5.41325e-06
0.510435
5.75858e-06
0.510429
5.86826e-06
0.510424
5.74904e-06
0.510418
5.52555e-06
0.510413
5.36831e-06
0.510407
5.29022e-06
0.510402
5.1838e-06
0.510397
5.16933e-06
0.510392
5.48094e-06
0.510386
5.79217e-06
0.51038
5.67674e-06
0.510375
5.43066e-06
0.510369
5.3156e-06
0.510364
5.27091e-06
0.510359
5.41873e-06
0.510353
5.59748e-06
0.510348
5.58999e-06
0.510342
5.54801e-06
0.510336
5.49372e-06
0.510331
5.43842e-06
0.510326
5.40416e-06
0.51032
5.26063e-06
0.510315
5.23203e-06
0.51031
5.53398e-06
0.510304
5.72925e-06
0.510298
5.64773e-06
0.510293
5.65943e-06
0.510287
5.65304e-06
0.510281
5.45929e-06
0.510276
5.30251e-06
0.510271
5.19923e-06
0.510266
5.11217e-06
0.510261
5.11276e-06
0.510256
5.18335e-06
0.51025
5.31076e-06
0.510245
5.51867e-06
0.510239
5.71331e-06
0.510233
5.85762e-06
0.510227
5.89339e-06
0.510222
5.64637e-06
0.510216
5.24088e-06
0.510211
4.93466e-06
0.510207
4.83685e-06
0.510201
5.14792e-06
0.510196
5.63143e-06
0.51019
5.78055e-06
0.510184
5.71655e-06
0.510179
5.5877e-06
0.510173
5.28827e-06
0.510168
5.13784e-06
0.510163
5.36607e-06
0.510157
5.63489e-06
0.510152
5.54436e-06
0.510147
5.20636e-06
0.510142
5.02023e-06
0.510136
5.06473e-06
0.510131
5.12729e-06
0.510126
5.12918e-06
0.510121
5.07461e-06
0.510116
5.03847e-06
0.510111
5.17113e-06
0.510105
5.49551e-06
0.5101
5.80343e-06
0.510094
5.82781e-06
0.510088
5.67168e-06
0.510083
5.62412e-06
0.510077
5.63211e-06
0.510071
5.57169e-06
0.510066
5.5256e-06
0.51006
5.57922e-06
0.510055
5.66153e-06
0.510049
5.54211e-06
0.510044
5.16937e-06
0.510039
4.84981e-06
0.510034
4.91159e-06
0.510029
5.31647e-06
0.510023
5.58522e-06
0.510018
5.58585e-06
0.510012
5.77699e-06
0.510006
6.14094e-06
0.509999
6.19265e-06
0.509994
5.83377e-06
0.509988
5.25746e-06
0.509984
4.83226e-06
0.509979
4.85177e-06
0.509974
5.12496e-06
0.509968
5.45722e-06
0.509962
5.74009e-06
0.509957
5.82712e-06
0.509951
5.8399e-06
0.509945
5.77782e-06
0.509939
5.49162e-06
0.509934
5.28577e-06
0.509929
5.46487e-06
0.509923
5.71246e-06
0.509917
5.66501e-06
0.509912
5.46579e-06
0.509906
5.35203e-06
0.509901
5.26755e-06
0.509896
5.16289e-06
0.509891
5.13317e-06
0.509886
5.14827e-06
0.509881
5.23478e-06
0.509875
5.5797e-06
0.509869
5.99492e-06
0.509863
6.13455e-06
0.509857
5.93474e-06
0.509851
5.52424e-06
0.509846
5.28704e-06
0.509841
5.41749e-06
0.509835
5.6736e-06
0.509829
5.82688e-06
0.509823
5.72365e-06
0.509818
5.37883e-06
0.509813
5.13146e-06
0.509808
5.13317e-06
0.509803
5.1471e-06
0.509797
5.27576e-06
0.509792
5.53478e-06
0.509786
6.04782e-06
5.40884e-06
0.511143
1.7455e-07
0.511148
5.5783e-07
0.511155
1.21055e-06
0.511158
1.76877e-06
0.51116
2.58522e-06
0.511162
2.7679e-06
0.511165
2.5018e-06
0.511168
2.42485e-06
0.511171
2.50001e-06
0.511174
2.45499e-06
0.511177
2.00895e-06
0.511181
1.76518e-06
0.511184
2.26028e-06
0.511186
2.68399e-06
0.511189
2.43356e-06
0.511193
2.14626e-06
0.511197
2.38036e-06
0.5112
2.67377e-06
0.511203
2.42418e-06
0.511205
2.09647e-06
0.511207
2.28192e-06
0.511209
2.41896e-06
0.511212
2.27312e-06
0.511215
2.48271e-06
0.511217
2.76038e-06
0.511219
2.74549e-06
0.511222
2.85503e-06
0.511225
3.10576e-06
0.511228
3.37724e-06
0.511231
3.54307e-06
0.511233
2.99118e-06
0.511236
1.96505e-06
0.51124
1.47719e-06
0.511244
1.43578e-06
0.511248
1.74121e-06
0.511251
2.63195e-06
0.511254
3.03221e-06
0.511257
2.60752e-06
0.51126
2.29187e-06
0.511264
2.25021e-06
0.511267
2.33948e-06
0.511271
2.57512e-06
0.511273
2.77302e-06
0.511276
2.81773e-06
0.511278
2.93248e-06
0.51128
3.00145e-06
0.511283
2.87956e-06
0.511286
2.83404e-06
0.511288
2.69521e-06
0.511291
2.19975e-06
0.511294
1.83633e-06
0.511298
1.88728e-06
0.511301
1.9805e-06
0.511305
1.99571e-06
0.511309
2.11277e-06
0.511312
2.25501e-06
0.511316
2.19659e-06
0.511319
2.14935e-06
0.511322
2.47999e-06
0.511324
2.9627e-06
0.511326
3.31762e-06
0.511327
3.62271e-06
0.511328
3.73335e-06
0.51133
3.34919e-06
0.511333
2.69022e-06
0.511336
2.22569e-06
0.511339
1.91005e-06
0.511343
1.64216e-06
0.511348
1.6096e-06
0.511352
1.72354e-06
0.511356
1.93735e-06
0.511359
2.20491e-06
0.511362
2.30236e-06
0.511366
2.32309e-06
0.511368
2.55227e-06
0.511371
2.83822e-06
0.511373
2.91545e-06
0.511374
3.0544e-06
0.511376
3.24762e-06
0.511378
3.11631e-06
0.511381
2.76184e-06
0.511384
2.41024e-06
0.511387
2.33475e-06
0.51139
2.49772e-06
0.511394
2.37705e-06
0.511398
2.01164e-06
0.511402
1.69399e-06
0.511406
1.47081e-06
0.51141
1.68731e-06
0.511413
2.22889e-06
0.511416
2.47258e-06
0.511418
2.5531e-06
0.511421
2.85939e-06
0.511423
3.14238e-06
0.511425
3.18799e-06
0.511428
3.14894e-06
0.51143
3.12512e-06
0.511432
3.00523e-06
0.511435
2.71736e-06
0.511438
2.44626e-06
0.51144
2.27199e-06
0.511444
2.06396e-06
0.511447
1.95897e-06
0.511452
2.06397e-06
0.511456
2.10648e-06
0.51146
2.05307e-06
0.511463
2.21144e-06
0.511466
2.54144e-06
0.511469
2.69299e-06
0.511471
2.62224e-06
0.511474
2.58643e-06
0.511477
2.69385e-06
0.51148
2.8317e-06
0.511483
2.84678e-06
0.511485
2.73429e-06
0.511488
2.73725e-06
0.51149
2.93331e-06
0.511492
3.04386e-06
0.511494
2.91202e-06
0.511497
2.60823e-06
0.5115
2.25087e-06
0.511504
1.99795e-06
0.511507
1.96734e-06
0.511511
2.1832e-06
0.511514
2.43026e-06
0.511517
2.47635e-06
0.511519
2.36213e-06
0.511522
2.21184e-06
0.511526
2.06649e-06
0.51153
1.90408e-06
0.511533
1.91576e-06
0.511537
2.3365e-06
0.51154
2.8526e-06
0.511542
3.09068e-06
0.511544
3.13423e-06
0.511546
3.16219e-06
0.511548
3.05292e-06
0.511551
2.83314e-06
0.511554
2.782e-06
0.511557
2.74953e-06
0.51156
2.52715e-06
0.511562
2.47845e-06
0.511565
2.61535e-06
0.511568
2.57452e-06
0.511571
2.49433e-06
0.511574
2.49717e-06
0.511577
2.33263e-06
0.511581
2.06689e-06
0.511584
1.93825e-06
0.511588
1.96433e-06
0.511591
2.19016e-06
0.511593
2.54704e-06
0.511596
2.8273e-06
0.511599
2.92779e-06
0.511602
2.6643e-06
0.511605
2.23134e-06
0.511609
2.12388e-06
0.511612
2.27199e-06
0.511615
2.37623e-06
0.511618
2.47611e-06
0.51162
2.64969e-06
0.511623
2.81523e-06
0.511625
2.89098e-06
0.511627
2.87194e-06
0.51163
2.78445e-06
0.511633
2.73921e-06
0.511636
2.83293e-06
0.511639
2.92719e-06
0.511642
2.95557e-06
0.511644
3.03861e-06
0.511646
3.01577e-06
0.511648
2.67889e-06
0.511651
2.34027e-06
0.511654
2.25078e-06
0.511658
2.20804e-06
0.511661
2.16882e-06
0.511665
2.28824e-06
0.511667
2.39466e-06
0.51167
2.38423e-06
0.511673
2.4808e-06
0.511676
2.70814e-06
0.511679
2.88335e-06
0.511681
2.89408e-06
0.511683
2.72571e-06
0.511686
2.55235e-06
0.511688
2.43266e-06
0.511691
2.27909e-06
0.511694
2.32525e-06
0.511697
2.55958e-06
0.511699
2.51642e-06
0.511702
2.28023e-06
0.511706
2.27404e-06
0.511709
2.42637e-06
0.511713
2.51295e-06
0.511716
2.52934e-06
0.511719
2.47797e-06
0.511722
2.32231e-06
0.511725
2.28161e-06
0.511728
2.51135e-06
0.511731
2.62763e-06
0.511734
2.39653e-06
0.511737
2.20155e-06
0.51174
2.28783e-06
0.511742
2.45098e-06
0.511745
2.5343e-06
0.511748
2.55386e-06
0.511751
2.54697e-06
0.511755
2.55488e-06
0.511758
2.55627e-06
0.511762
2.45839e-06
0.511765
2.41243e-06
0.511768
2.44926e-06
0.511771
2.29719e-06
0.511773
2.1003e-06
0.511776
2.15292e-06
0.51178
2.19301e-06
0.511783
2.229e-06
0.511786
2.54716e-06
0.511789
2.86316e-06
0.511792
2.83992e-06
0.511795
2.60747e-06
0.511798
2.44798e-06
0.511801
2.53215e-06
0.511804
2.63515e-06
0.511807
2.5693e-06
0.51181
2.58487e-06
0.511813
2.66445e-06
0.511815
2.53043e-06
0.511818
2.2816e-06
0.511821
2.08065e-06
0.511825
1.98181e-06
0.511828
2.11562e-06
0.511831
2.51119e-06
0.511834
2.8537e-06
0.511837
2.84052e-06
0.51184
2.77166e-06
0.511843
2.88495e-06
0.511845
2.89333e-06
0.511848
2.7229e-06
0.511851
2.57359e-06
0.511854
2.54279e-06
0.511858
2.56935e-06
0.51186
2.55194e-06
0.511863
2.50415e-06
0.511866
2.5464e-06
0.511868
2.55908e-06
0.511871
2.3323e-06
0.511875
2.08585e-06
0.511879
2.05802e-06
2.40561e-06
0.511142
-3.10239e-08
0.511142
3.2659e-07
0.511142
1.00795e-06
0.511142
1.78723e-06
0.511143
1.91574e-06
0.511144
1.53127e-06
0.511145
1.57014e-06
0.511145
2.03163e-06
0.511146
2.31723e-06
0.511146
1.95475e-06
0.511146
1.73313e-06
0.511146
2.20146e-06
0.511145
2.72624e-06
0.511145
2.77276e-06
0.511145
2.52315e-06
0.511145
2.43946e-06
0.511145
2.31878e-06
0.511146
1.84127e-06
0.511147
1.62527e-06
0.511147
1.77546e-06
0.511148
1.67528e-06
0.511148
1.92369e-06
0.511148
2.5781e-06
0.511148
2.60928e-06
0.511148
2.41855e-06
0.511148
2.49508e-06
0.511149
2.63189e-06
0.511149
2.97303e-06
0.511149
3.25961e-06
0.511149
2.86501e-06
0.51115
1.95578e-06
0.511151
1.22905e-06
0.511152
1.02558e-06
0.511152
1.42253e-06
0.511151
1.99607e-06
0.511152
2.3145e-06
0.511152
2.39964e-06
0.511153
2.46733e-06
0.511152
2.45135e-06
0.511152
2.21758e-06
0.511153
2.15722e-06
0.511153
2.32191e-06
0.511153
2.41909e-06
0.511153
2.62917e-06
0.511153
2.98358e-06
0.511153
3.16862e-06
0.511153
2.99364e-06
0.511153
2.55743e-06
0.511154
2.16188e-06
0.511154
2.0392e-06
0.511154
2.03413e-06
0.511154
1.84844e-06
0.511154
1.57748e-06
0.511155
1.72067e-06
0.511154
2.26861e-06
0.511154
2.5409e-06
0.511154
2.30265e-06
0.511154
2.04358e-06
0.511155
2.00852e-06
0.511156
2.00495e-06
0.511157
2.27655e-06
0.511157
2.80528e-06
0.511158
3.01518e-06
0.511159
2.88666e-06
0.511159
2.50751e-06
0.511159
1.91595e-06
0.511159
1.61089e-06
0.511159
1.72594e-06
0.511159
1.94748e-06
0.511159
2.03598e-06
0.511159
1.92669e-06
0.511159
1.81403e-06
0.511159
1.87068e-06
0.51116
1.89661e-06
0.511161
1.84615e-06
0.511161
2.08321e-06
0.511162
2.51479e-06
0.511162
2.81484e-06
0.511162
2.90504e-06
0.511163
2.69482e-06
0.511163
2.4027e-06
0.511163
2.32178e-06
0.511163
2.40769e-06
0.511163
2.43085e-06
0.511163
2.14649e-06
0.511164
1.81736e-06
0.511163
1.86973e-06
0.511163
2.11652e-06
0.511162
2.14232e-06
0.511162
2.08304e-06
0.511163
2.3011e-06
0.511163
2.61916e-06
0.511163
2.77009e-06
0.511163
2.90865e-06
0.511163
3.07895e-06
0.511163
3.00622e-06
0.511164
2.57171e-06
0.511165
2.13758e-06
0.511165
1.93076e-06
0.511166
1.75267e-06
0.511167
1.78434e-06
0.511166
2.16373e-06
0.511166
2.38202e-06
0.511166
2.21009e-06
0.511166
1.9295e-06
0.511166
1.82485e-06
0.511166
1.99584e-06
0.511167
2.22256e-06
0.511167
2.32961e-06
0.511167
2.38714e-06
0.511168
2.35281e-06
0.511168
2.17029e-06
0.511169
2.01766e-06
0.51117
2.04968e-06
0.51117
2.16782e-06
0.511171
2.28305e-06
0.511171
2.47549e-06
0.511172
2.79307e-06
0.511171
3.02584e-06
0.511171
2.88763e-06
0.511171
2.58626e-06
0.51117
2.3746e-06
0.51117
2.07873e-06
0.511171
1.85639e-06
0.511171
1.88556e-06
0.511172
1.86459e-06
0.511172
1.76754e-06
0.511173
1.79994e-06
0.511173
1.91503e-06
0.511173
1.85752e-06
0.511173
1.68493e-06
0.511174
1.88735e-06
0.511174
2.36731e-06
0.511175
2.64339e-06
0.511175
2.78306e-06
0.511175
2.89602e-06
0.511175
2.88085e-06
0.511175
2.79422e-06
0.511176
2.67173e-06
0.511176
2.54787e-06
0.511176
2.48567e-06
0.511176
2.40649e-06
0.511176
2.38054e-06
0.511176
2.4105e-06
0.511177
2.16174e-06
0.511177
1.83528e-06
0.511178
1.77036e-06
0.511178
1.59363e-06
0.511179
1.35241e-06
0.511179
1.52209e-06
0.51118
1.9534e-06
0.51118
2.35476e-06
0.51118
2.62626e-06
0.51118
2.67121e-06
0.51118
2.4657e-06
0.51118
2.12861e-06
0.511181
1.94491e-06
0.511181
2.04616e-06
0.511181
2.27319e-06
0.511181
2.36993e-06
0.511181
2.30791e-06
0.511182
2.38038e-06
0.511182
2.63615e-06
0.511182
2.82853e-06
0.511182
2.91543e-06
0.511182
2.84694e-06
0.511182
2.63507e-06
0.511183
2.52955e-06
0.511183
2.53832e-06
0.511183
2.56665e-06
0.511184
2.67726e-06
0.511184
2.73037e-06
0.511183
2.59519e-06
0.511183
2.43358e-06
0.511183
2.37133e-06
0.511183
2.28891e-06
0.511183
2.20561e-06
0.511183
2.35993e-06
0.511183
2.50347e-06
0.511183
2.29063e-06
0.511184
2.05485e-06
0.511185
1.95841e-06
0.511186
1.91137e-06
0.511186
2.10657e-06
0.511187
2.35727e-06
0.511187
2.33899e-06
0.511187
2.21568e-06
0.511187
2.18531e-06
0.511187
2.24127e-06
0.511187
2.23205e-06
0.511188
2.13817e-06
0.511188
2.20792e-06
0.511188
2.41815e-06
0.511188
2.49069e-06
0.511188
2.41526e-06
0.511188
2.3146e-06
0.511188
2.23737e-06
0.511188
2.20906e-06
0.511188
2.20421e-06
0.511189
2.08044e-06
0.51119
1.74838e-06
0.51119
1.52504e-06
0.511191
1.69719e-06
0.511191
2.0271e-06
0.511192
2.26775e-06
0.511192
2.41444e-06
0.511192
2.4991e-06
0.511192
2.55691e-06
0.511192
2.44658e-06
0.511192
2.11926e-06
0.511193
1.86905e-06
0.511193
1.87048e-06
0.511194
2.03248e-06
0.511194
2.20002e-06
0.511193
2.19435e-06
0.511194
1.97699e-06
0.511194
1.86125e-06
0.511195
2.10068e-06
0.511195
2.37056e-06
0.511195
2.38809e-06
0.511196
2.41738e-06
0.511196
2.5146e-06
0.511196
2.46788e-06
0.511196
2.39264e-06
0.511196
2.36022e-06
0.511196
2.31409e-06
0.511197
2.28882e-06
0.511197
2.18249e-06
0.511197
1.99655e-06
0.511198
1.89296e-06
0.511198
1.98617e-06
0.511197
2.28727e-06
0.511197
2.56775e-06
0.511198
2.61868e-06
0.511198
2.48278e-06
0.511198
2.38253e-06
0.511199
2.43057e-06
0.511199
2.53336e-06
0.511199
2.63004e-06
0.511199
2.65048e-06
0.511199
2.54632e-06
0.511199
2.38333e-06
0.5112
2.21457e-06
0.5112
2.02408e-06
0.511201
1.90063e-06
0.511201
1.96603e-06
0.511202
2.00081e-06
0.511202
1.83406e-06
0.511202
1.55783e-06
1.62823e-06
0.511142
9.19001e-08
0.511142
5.7348e-07
0.511142
1.16309e-06
0.511142
1.30916e-06
0.511143
9.5861e-07
0.511144
9.82605e-07
0.511144
1.29747e-06
0.511145
1.36169e-06
0.511146
1.06608e-06
0.511147
1.03121e-06
0.511147
1.65107e-06
0.511147
2.323e-06
0.511147
2.533e-06
0.511147
2.5289e-06
0.511147
2.55383e-06
0.511147
2.37603e-06
0.511148
2.0995e-06
0.511147
2.04501e-06
0.511147
1.75636e-06
0.511148
1.41178e-06
0.511147
1.94539e-06
0.511147
2.36852e-06
0.511147
2.01097e-06
0.511148
2.03693e-06
0.511148
2.42464e-06
0.511148
2.58031e-06
0.511148
2.95033e-06
0.511148
3.00588e-06
0.511148
2.46668e-06
0.511149
1.88581e-06
0.51115
1.48501e-06
0.51115
1.50413e-06
0.511149
1.58334e-06
0.511149
1.5307e-06
0.511149
1.59128e-06
0.51115
1.5546e-06
0.511151
1.68888e-06
0.511151
1.91641e-06
0.511152
1.63828e-06
0.511153
1.38255e-06
0.511153
1.66887e-06
0.511154
2.06725e-06
0.511153
2.65565e-06
0.511153
3.15732e-06
0.511153
3.02964e-06
0.511153
2.87373e-06
0.511153
2.73312e-06
0.511154
2.17548e-06
0.511154
1.85245e-06
0.511154
2.07911e-06
0.511154
2.08966e-06
0.511154
1.68677e-06
0.511154
1.46304e-06
0.511154
1.63447e-06
0.511155
1.81405e-06
0.511156
1.86489e-06
0.511156
2.05631e-06
0.511155
2.40339e-06
0.511155
2.71108e-06
0.511154
2.76645e-06
0.511154
2.53532e-06
0.511154
2.26478e-06
0.511155
1.97536e-06
0.511157
1.64411e-06
0.511158
1.49854e-06
0.511158
1.5833e-06
0.511158
1.59467e-06
0.511158
1.41848e-06
0.511159
1.36899e-06
0.511159
1.45918e-06
0.51116
1.57711e-06
0.51116
1.76158e-06
0.51116
1.93608e-06
0.51116
2.08904e-06
0.511159
2.17393e-06
0.511159
2.2552e-06
0.511159
2.4181e-06
0.511159
2.45979e-06
0.51116
2.4391e-06
0.51116
2.41903e-06
0.51116
2.25599e-06
0.511161
1.94711e-06
0.511161
1.72406e-06
0.511162
1.76374e-06
0.511163
1.58886e-06
0.511163
1.14517e-06
0.511164
1.25986e-06
0.511164
1.80386e-06
0.511164
2.08848e-06
0.511164
2.18627e-06
0.511164
2.38949e-06
0.511164
2.67866e-06
0.511164
2.86923e-06
0.511164
3.02381e-06
0.511164
3.11729e-06
0.511164
2.86247e-06
0.511164
2.46506e-06
0.511164
2.0911e-06
0.511164
1.5793e-06
0.511165
1.22304e-06
0.511165
1.31897e-06
0.511166
1.70597e-06
0.511166
1.96846e-06
0.511167
1.80298e-06
0.511167
1.56357e-06
0.511167
1.65117e-06
0.511167
1.8153e-06
0.511168
1.85726e-06
0.511168
1.94292e-06
0.511168
2.08524e-06
0.511169
2.1662e-06
0.511169
2.16081e-06
0.511169
2.06759e-06
0.511169
2.02625e-06
0.511169
2.09326e-06
0.511169
2.11471e-06
0.511169
2.16007e-06
0.51117
2.26468e-06
0.51117
2.30162e-06
0.511171
2.3648e-06
0.511171
2.44314e-06
0.511171
2.367e-06
0.511171
2.07365e-06
0.511171
1.67115e-06
0.511172
1.40285e-06
0.511172
1.3204e-06
0.511173
1.23245e-06
0.511174
1.13456e-06
0.511174
1.23108e-06
0.511174
1.59122e-06
0.511174
1.96455e-06
0.511174
2.15874e-06
0.511174
2.26271e-06
0.511174
2.37617e-06
0.511175
2.41957e-06
0.511175
2.53136e-06
0.511175
2.78286e-06
0.511175
2.69169e-06
0.511176
2.35052e-06
0.511176
2.36569e-06
0.511176
2.44656e-06
0.511176
2.3048e-06
0.511176
2.19378e-06
0.511176
1.99128e-06
0.511177
1.69446e-06
0.511177
1.55265e-06
0.511178
1.46103e-06
0.511178
1.31746e-06
0.511178
1.18379e-06
0.511178
1.19838e-06
0.511179
1.60385e-06
0.511179
2.10418e-06
0.511179
2.13912e-06
0.51118
2.01449e-06
0.51118
2.12418e-06
0.51118
2.11439e-06
0.51118
1.96675e-06
0.51118
1.98704e-06
0.511181
2.06411e-06
0.511181
2.10112e-06
0.511181
2.15496e-06
0.511181
2.18099e-06
0.511182
2.30193e-06
0.511182
2.60576e-06
0.511182
2.83956e-06
0.511182
2.86485e-06
0.511182
2.79709e-06
0.511182
2.69265e-06
0.511182
2.54195e-06
0.511182
2.36601e-06
0.511182
2.34401e-06
0.511182
2.44093e-06
0.511183
2.32317e-06
0.511183
2.12954e-06
0.511183
2.13077e-06
0.511183
2.13071e-06
0.511183
2.10467e-06
0.511184
2.18291e-06
0.511184
2.28199e-06
0.511184
2.29866e-06
0.511184
2.11818e-06
0.511184
1.85637e-06
0.511184
1.75406e-06
0.511185
1.66221e-06
0.511185
1.53111e-06
0.511186
1.60458e-06
0.511186
1.79267e-06
0.511187
1.94562e-06
0.511187
2.12952e-06
0.511187
2.23854e-06
0.511187
2.1083e-06
0.511187
1.92984e-06
0.511188
1.95181e-06
0.511188
2.02876e-06
0.511188
2.08611e-06
0.511188
2.24309e-06
0.511188
2.33955e-06
0.511188
2.21776e-06
0.511189
1.98306e-06
0.511189
1.76752e-06
0.511189
1.60172e-06
0.511189
1.46813e-06
0.511189
1.51362e-06
0.51119
1.71219e-06
0.51119
1.77607e-06
0.511191
1.94501e-06
0.511191
2.38018e-06
0.511191
2.54427e-06
0.511191
2.25633e-06
0.511191
1.76064e-06
0.511192
1.29735e-06
0.511192
1.33728e-06
0.511193
1.82051e-06
0.511193
2.03688e-06
0.511193
1.89819e-06
0.511193
1.83397e-06
0.511193
1.95876e-06
0.511193
2.00612e-06
0.511194
1.79231e-06
0.511195
1.59377e-06
0.511195
1.74662e-06
0.511196
2.08329e-06
0.511196
2.25956e-06
0.511196
2.27178e-06
0.511196
2.23229e-06
0.511196
2.09727e-06
0.511197
1.92499e-06
0.511197
1.79915e-06
0.511197
1.63443e-06
0.511198
1.57275e-06
0.511198
1.90435e-06
0.511198
2.27705e-06
0.511198
2.19608e-06
0.511199
1.97678e-06
0.511199
1.9479e-06
0.5112
2.06782e-06
0.5112
2.32013e-06
0.5112
2.40867e-06
0.5112
2.24919e-06
0.511201
2.18918e-06
0.511201
2.29952e-06
0.511201
2.31844e-06
0.511201
2.08058e-06
0.511201
1.75726e-06
0.511202
1.63282e-06
0.511202
1.76358e-06
0.511202
1.76259e-06
0.511203
1.41958e-06
0.511203
1.13463e-06
1.333e-06
0.511142
3.52259e-08
0.511142
4.44669e-07
0.511143
6.62076e-07
0.511143
5.8194e-07
0.511144
6.88425e-07
0.511143
1.04336e-06
0.511144
1.19374e-06
0.511144
9.22863e-07
0.511144
6.85047e-07
0.511144
1.07294e-06
0.511144
1.76428e-06
0.511145
2.02219e-06
0.511145
2.00089e-06
0.511146
2.02245e-06
0.511146
2.18078e-06
0.511146
2.24216e-06
0.511147
1.65653e-06
0.511148
1.02132e-06
0.511148
1.39794e-06
0.511147
2.12955e-06
0.511147
2.16457e-06
0.511147
2.14591e-06
0.511147
2.29713e-06
0.511147
1.92772e-06
0.511148
1.75254e-06
0.511148
2.07635e-06
0.511149
2.12509e-06
0.51115
2.15858e-06
0.51115
2.33858e-06
0.51115
2.13895e-06
0.511149
1.83074e-06
0.511149
1.58725e-06
0.51115
1.33117e-06
0.51115
1.21135e-06
0.51115
1.23876e-06
0.51115
1.40932e-06
0.511151
1.36917e-06
0.511151
1.22444e-06
0.511152
1.43321e-06
0.511151
1.58528e-06
0.511151
1.65153e-06
0.511151
2.00871e-06
0.511152
2.24541e-06
0.511153
2.40308e-06
0.511153
2.66911e-06
0.511153
2.6432e-06
0.511154
2.28549e-06
0.511154
2.08509e-06
0.511153
2.14786e-06
0.511153
2.12044e-06
0.511154
1.89902e-06
0.511154
1.7697e-06
0.511153
1.76305e-06
0.511153
1.65357e-06
0.511153
1.54415e-06
0.511154
1.56757e-06
0.511154
1.669e-06
0.511155
1.80335e-06
0.511156
1.96845e-06
0.511156
2.19045e-06
0.511156
2.40707e-06
0.511156
2.34411e-06
0.511156
1.85416e-06
0.511157
1.35793e-06
0.511157
1.17168e-06
0.511157
1.13323e-06
0.511158
1.13217e-06
0.511158
1.14926e-06
0.511158
1.22777e-06
0.511158
1.30156e-06
0.511159
1.15659e-06
0.511159
1.09633e-06
0.51116
1.44256e-06
0.51116
1.79458e-06
0.511161
1.83056e-06
0.511161
1.96123e-06
0.511161
2.26278e-06
0.511161
2.25942e-06
0.511162
2.13161e-06
0.511162
2.09834e-06
0.511162
2.01463e-06
0.511162
1.99687e-06
0.511162
1.86989e-06
0.511162
1.48878e-06
0.511163
1.19261e-06
0.511163
1.0126e-06
0.511163
1.01663e-06
0.511163
1.42045e-06
0.511164
1.86357e-06
0.511164
2.08469e-06
0.511164
2.29678e-06
0.511164
2.52547e-06
0.511164
2.73467e-06
0.511164
2.8777e-06
0.511164
2.81342e-06
0.511165
2.53903e-06
0.511165
2.04068e-06
0.511166
1.54661e-06
0.511166
1.46583e-06
0.511166
1.55967e-06
0.511165
1.47645e-06
0.511166
1.42288e-06
0.511166
1.40641e-06
0.511167
1.27701e-06
0.511167
1.17262e-06
0.511168
1.22619e-06
0.511168
1.43162e-06
0.511168
1.64371e-06
0.511168
1.72477e-06
0.511169
1.73058e-06
0.511169
1.70881e-06
0.51117
1.67765e-06
0.51117
1.68235e-06
0.51117
1.73646e-06
0.511171
1.90854e-06
0.51117
2.17387e-06
0.51117
2.34623e-06
0.51117
2.39739e-06
0.51117
2.39637e-06
0.51117
2.1814e-06
0.511171
1.83022e-06
0.511171
1.82185e-06
0.511172
1.96203e-06
0.511171
1.7451e-06
0.511171
1.42703e-06
0.511172
1.25088e-06
0.511172
1.06237e-06
0.511172
8.75933e-07
0.511172
8.31306e-07
0.511173
1.06041e-06
0.511173
1.43666e-06
0.511174
1.74657e-06
0.511174
2.07517e-06
0.511174
2.41415e-06
0.511174
2.51961e-06
0.511174
2.42432e-06
0.511174
2.36393e-06
0.511175
2.3546e-06
0.511175
2.2836e-06
0.511175
2.2416e-06
0.511175
2.31631e-06
0.511175
2.26817e-06
0.511175
2.00132e-06
0.511175
1.81617e-06
0.511176
1.61255e-06
0.511176
1.16054e-06
0.511176
8.85885e-07
0.511177
8.69248e-07
0.511177
8.76162e-07
0.511177
1.11987e-06
0.511177
1.51025e-06
0.511178
1.81304e-06
0.511178
1.98412e-06
0.511178
1.79477e-06
0.511179
1.48845e-06
0.511179
1.47206e-06
0.51118
1.59872e-06
0.51118
1.75424e-06
0.51118
1.94238e-06
0.51118
2.02981e-06
0.51118
2.02759e-06
0.51118
2.06306e-06
0.511181
2.16077e-06
0.511181
2.29089e-06
0.511181
2.48336e-06
0.511181
2.6259e-06
0.511182
2.60996e-06
0.511182
2.64462e-06
0.511181
2.749e-06
0.511181
2.66379e-06
0.511181
2.46586e-06
0.511181
2.3026e-06
0.511181
2.0854e-06
0.511182
1.88167e-06
0.511182
1.86742e-06
0.511182
1.93381e-06
0.511182
1.8139e-06
0.511183
1.67861e-06
0.511183
1.81999e-06
0.511184
1.88526e-06
0.511184
1.64502e-06
0.511185
1.47312e-06
0.511185
1.47536e-06
0.511185
1.47789e-06
0.511185
1.44433e-06
0.511185
1.45282e-06
0.511186
1.56416e-06
0.511186
1.64714e-06
0.511186
1.59206e-06
0.511187
1.5298e-06
0.511188
1.54856e-06
0.511188
1.66994e-06
0.511188
1.88685e-06
0.511188
2.06049e-06
0.511188
2.06741e-06
0.511188
1.98887e-06
0.511189
1.9908e-06
0.511189
2.02633e-06
0.511189
1.84631e-06
0.511189
1.44497e-06
0.51119
1.12681e-06
0.51119
1.15383e-06
0.51119
1.50104e-06
0.51119
1.82628e-06
0.51119
1.89663e-06
0.51119
1.79273e-06
0.511191
1.70523e-06
0.511191
1.7506e-06
0.511192
1.80319e-06
0.511192
1.63895e-06
0.511192
1.4039e-06
0.511192
1.46152e-06
0.511192
1.76581e-06
0.511192
1.78955e-06
0.511192
1.52798e-06
0.511193
1.5188e-06
0.511193
1.73052e-06
0.511193
1.79173e-06
0.511193
1.76342e-06
0.511193
1.70652e-06
0.511193
1.61879e-06
0.511194
1.65259e-06
0.511194
1.72398e-06
0.511195
1.74145e-06
0.511195
1.83428e-06
0.511195
1.91037e-06
0.511195
1.86254e-06
0.511195
1.78091e-06
0.511195
1.72548e-06
0.511195
1.70001e-06
0.511195
1.72375e-06
0.511196
1.83081e-06
0.511196
1.87932e-06
0.511196
1.81164e-06
0.511196
1.81492e-06
0.511197
1.84537e-06
0.511197
1.84811e-06
0.511198
1.90249e-06
0.511198
1.91806e-06
0.511198
1.8892e-06
0.511199
2.01408e-06
0.511199
2.15366e-06
0.511199
2.00604e-06
0.511199
1.69423e-06
0.511199
1.32219e-06
0.5112
1.00016e-06
0.511201
9.50907e-07
0.511201
1.11698e-06
0.511201
1.21967e-06
1.36562e-06
0.511142
1.37228e-07
0.511142
2.42503e-07
0.511143
2.85702e-07
0.511143
4.95349e-07
0.511143
6.58789e-07
0.511143
5.52848e-07
0.511144
4.60679e-07
0.511145
4.95862e-07
0.511144
7.47889e-07
0.511144
1.16764e-06
0.511145
1.31991e-06
0.511145
1.36789e-06
0.511146
1.61346e-06
0.511146
1.91076e-06
0.511146
1.88482e-06
0.511147
1.45906e-06
0.511148
1.14347e-06
0.511147
1.52565e-06
0.511146
2.10901e-06
0.511146
2.33796e-06
0.511146
2.1995e-06
0.511147
1.66439e-06
0.511148
1.1239e-06
0.511148
1.42753e-06
0.511148
2.16859e-06
0.511147
2.52234e-06
0.511147
2.51228e-06
0.511147
1.9871e-06
0.511148
1.483e-06
0.511149
1.51116e-06
0.511149
1.68699e-06
0.511149
1.54479e-06
0.511149
1.015e-06
0.51115
7.43219e-07
0.51115
9.82183e-07
0.51115
1.27786e-06
0.51115
1.36734e-06
0.51115
1.09287e-06
0.511151
8.70078e-07
0.511151
1.08464e-06
0.511151
1.50821e-06
0.511151
1.91039e-06
0.511152
2.06813e-06
0.511152
1.86992e-06
0.511153
1.64088e-06
0.511154
1.52782e-06
0.511155
1.68263e-06
0.511155
2.12564e-06
0.511155
2.28432e-06
0.511155
2.01737e-06
0.511155
1.83247e-06
0.511155
1.84387e-06
0.511155
1.9014e-06
0.511154
1.92984e-06
0.511154
1.66002e-06
0.511155
1.27476e-06
0.511155
1.27923e-06
0.511155
1.39641e-06
0.511156
1.42982e-06
0.511156
1.74994e-06
0.511157
1.91755e-06
0.511158
1.62286e-06
0.511158
1.39211e-06
0.511158
1.42058e-06
0.511158
1.49888e-06
0.511157
1.48128e-06
0.511157
1.31947e-06
0.511157
1.07807e-06
0.511158
8.2885e-07
0.511158
6.92616e-07
0.511159
8.44335e-07
0.511158
1.13737e-06
0.511159
1.23526e-06
0.511159
1.41831e-06
0.511159
1.7033e-06
0.51116
1.63434e-06
0.51116
1.63183e-06
0.51116
1.93767e-06
0.511161
1.98057e-06
0.511161
1.79045e-06
0.511161
1.67614e-06
0.511162
1.50398e-06
0.511162
1.22502e-06
0.511163
1.0707e-06
0.511163
1.11381e-06
0.511163
1.17946e-06
0.511163
1.1727e-06
0.511163
1.20059e-06
0.511163
1.44007e-06
0.511163
1.84964e-06
0.511164
2.2254e-06
0.511163
2.59814e-06
0.511163
2.8659e-06
0.511163
2.81256e-06
0.511164
2.52376e-06
0.511164
2.07042e-06
0.511165
1.56646e-06
0.511165
1.20601e-06
0.511165
1.01989e-06
0.511166
1.08426e-06
0.511166
1.27039e-06
0.511166
1.27366e-06
0.511167
1.1251e-06
0.511167
9.99941e-07
0.511167
1.00911e-06
0.511167
1.10296e-06
0.511167
1.1634e-06
0.511168
1.31047e-06
0.511168
1.54912e-06
0.511168
1.6457e-06
0.511168
1.58547e-06
0.511168
1.49235e-06
0.511169
1.42313e-06
0.511169
1.47704e-06
0.511169
1.68073e-06
0.511169
1.88205e-06
0.51117
2.09011e-06
0.51117
2.32787e-06
0.51117
2.41464e-06
0.511169
2.29898e-06
0.511169
2.0051e-06
0.511169
1.63589e-06
0.51117
1.41182e-06
0.511171
1.27243e-06
0.511171
1.09021e-06
0.511171
8.62137e-07
0.511172
6.37264e-07
0.511172
5.94732e-07
0.511172
7.58822e-07
0.511172
1.04331e-06
0.511172
1.42188e-06
0.511172
1.65569e-06
0.511173
1.70282e-06
0.511173
1.89098e-06
0.511173
2.15029e-06
0.511174
2.20027e-06
0.511174
2.19189e-06
0.511174
2.17158e-06
0.511174
2.06652e-06
0.511174
2.09076e-06
0.511175
2.14233e-06
0.511175
1.98542e-06
0.511175
1.70039e-06
0.511176
1.36927e-06
0.511176
1.14471e-06
0.511176
9.52721e-07
0.511176
6.55971e-07
0.511177
5.99334e-07
0.511177
7.94312e-07