/*--------------------------------*- C++ -*----------------------------------*\
| =========                 |                                                 |
| \\      /  F ield         | OpenFOAM: The Open Source CFD Toolbox           |
|  \\    /   O peration     | Version:  2406                                  |
|   \\  /    A nd           | Website:  www.openfoam.com                      |
|    \\/     M anipulation  |                                                 |
\*---------------------------------------------------------------------------*/
FoamFile
{
    version     2.0;
    format      ascii;
    arch        "LSB;label=32;scalar=64";
    class       volVectorField;
    location    "2.1";
    object      U;
}
// * * * * * * * * * * * * * * * * * * * * * * * * * * * * * * * * * * * * * //

dimensions      [0 1 -1 0 0 0 0];

internalField   nonuniform List<vector> 
6250
(
(50.5475 8.88301e-05 0)
(85.4615 0.000534249 0)
(73.2907 0.000838249 0)
(60.6435 0.000821283 0)
(59.8985 0.000703683 0)
(63.358 0.000673538 0)
(64.8677 0.000710519 0)
(64.4164 0.000740578 0)
(63.7992 0.000766517 0)
(63.6965 0.000797039 0)
(63.839 0.000822978 0)
(63.9232 0.000839748 0)
(63.9128 0.000844104 0)
(63.8832 0.000836552 0)
(63.8744 0.000833903 0)
(63.8791 0.000855587 0)
(63.8828 0.000884785 0)
(63.8822 0.000891776 0)
(63.8803 0.000876972 0)
(63.8791 0.000835656 0)
(63.8787 0.000763471 0)
(63.8784 0.00072354 0)
(63.8778 0.000758361 0)
(63.8771 0.00079316 0)
(63.8765 0.000788382 0)
(63.8759 0.000789656 0)
(63.8752 0.000805291 0)
(63.8745 0.000835345 0)
(63.8737 0.000873329 0)
(63.8729 0.000882263 0)
(63.8722 0.000869764 0)
(63.8716 0.000871117 0)
(63.8709 0.000889774 0)
(63.8702 0.000920817 0)
(63.8696 0.000962808 0)
(63.8688 0.000980118 0)
(63.8681 0.000971765 0)
(63.8674 0.000970183 0)
(63.8666 0.000951998 0)
(63.8659 0.000931395 0)
(63.8653 0.000957516 0)
(63.8645 0.000994144 0)
(63.8637 0.000977033 0)
(63.8631 0.000914986 0)
(63.8625 0.000870226 0)
(63.8618 0.000877967 0)
(63.8611 0.000907068 0)
(63.8604 0.000901585 0)
(63.8597 0.000865358 0)
(63.8591 0.000851425 0)
(63.8585 0.000882772 0)
(63.8579 0.000941673 0)
(63.8571 0.000992137 0)
(63.8564 0.00101445 0)
(63.8558 0.00102615 0)
(63.855 0.00102596 0)
(63.8542 0.000985688 0)
(63.8536 0.000915326 0)
(63.853 0.00085191 0)
(63.8523 0.000825603 0)
(63.8516 0.000822358 0)
(63.851 0.000792021 0)
(63.8504 0.000761213 0)
(63.8498 0.000788932 0)
(63.8491 0.000845764 0)
(63.8484 0.000883506 0)
(63.8478 0.000921715 0)
(63.8471 0.000982399 0)
(63.8463 0.00103551 0)
(63.8456 0.0010572 0)
(63.8449 0.00104782 0)
(63.8441 0.00101396 0)
(63.8435 0.000979844 0)
(63.8428 0.000953674 0)
(63.8421 0.000924024 0)
(63.8415 0.000875619 0)
(63.8408 0.000809832 0)
(63.8403 0.000774437 0)
(63.8396 0.000791853 0)
(63.8389 0.000829984 0)
(63.8383 0.000866353 0)
(63.8377 0.000908629 0)
(63.837 0.000966017 0)
(63.8362 0.00101707 0)
(63.8355 0.00105642 0)
(63.8348 0.00109672 0)
(63.834 0.00111109 0)
(63.8333 0.00109291 0)
(63.8327 0.00106828 0)
(63.8319 0.0010289 0)
(63.8313 0.000963879 0)
(63.8306 0.00089932 0)
(63.83 0.000870514 0)
(63.8293 0.000875373 0)
(63.8286 0.000883098 0)
(63.8279 0.000888932 0)
(63.8272 0.000898217 0)
(63.8266 0.000897897 0)
(63.8259 0.000884019 0)
(63.8252 0.000872363 0)
(63.8246 0.00088397 0)
(63.824 0.000927223 0)
(63.8233 0.000993351 0)
(63.8226 0.00106388 0)
(63.8217 0.00111035 0)
(63.8209 0.00110862 0)
(63.8202 0.00106315 0)
(63.8196 0.00100622 0)
(63.8189 0.000960678 0)
(63.8182 0.000923836 0)
(63.8176 0.000896483 0)
(63.8169 0.000891125 0)
(63.8162 0.000906332 0)
(63.8154 0.000917576 0)
(63.8148 0.000914327 0)
(63.8141 0.000912404 0)
(63.8135 0.000908215 0)
(63.8128 0.000894331 0)
(63.8122 0.000895921 0)
(63.8116 0.000929638 0)
(63.8109 0.000976997 0)
(63.8102 0.00101616 0)
(63.8095 0.00104274 0)
(63.8088 0.00104672 0)
(63.8081 0.00101314 0)
(63.8074 0.000960853 0)
(63.8068 0.00092412 0)
(63.8061 0.000925433 0)
(63.8055 0.00096631 0)
(63.8048 0.00101345 0)
(63.804 0.00103574 0)
(63.8033 0.0010243 0)
(63.8026 0.000981623 0)
(63.8019 0.00093209 0)
(63.8013 0.000898765 0)
(63.8006 0.000879499 0)
(63.8 0.000877038 0)
(63.7993 0.000911801 0)
(63.7986 0.000969122 0)
(63.7978 0.000998594 0)
(63.7972 0.000991677 0)
(63.7965 0.000971358 0)
(63.7958 0.000950751 0)
(63.7952 0.000947176 0)
(63.7945 0.000960341 0)
(63.7938 0.000966836 0)
(63.7931 0.000961453 0)
(63.7924 0.000958109 0)
(63.7917 0.000963977 0)
(63.7911 0.000971442 0)
(63.7904 0.00097176 0)
(63.7897 0.000977785 0)
(63.7891 0.00100178 0)
(63.7883 0.00101514 0)
(63.7876 0.00100195 0)
(63.7869 0.000999536 0)
(63.7862 0.00101692 0)
(63.7855 0.00102477 0)
(63.7849 0.00101585 0)
(63.7842 0.000988294 0)
(63.7835 0.000940515 0)
(63.7829 0.000890729 0)
(63.7823 0.000861484 0)
(63.7816 0.000869671 0)
(63.7809 0.000914983 0)
(63.7802 0.000971473 0)
(63.7795 0.0010091 0)
(63.7788 0.00101213 0)
(63.778 0.000981789 0)
(63.7774 0.000940392 0)
(63.7767 0.000909374 0)
(63.7761 0.000899758 0)
(63.7755 0.00092955 0)
(63.7749 0.000986059 0)
(63.7741 0.00102594 0)
(63.7734 0.00104437 0)
(63.7727 0.00104962 0)
(63.772 0.00102203 0)
(63.7714 0.000972238 0)
(63.7707 0.000946385 0)
(63.77 0.00094383 0)
(63.7693 0.000923895 0)
(63.7686 0.000885517 0)
(63.768 0.000864222 0)
(63.7674 0.000875069 0)
(63.7667 0.000906647 0)
(63.7661 0.000940033 0)
(63.7655 0.000959047 0)
(63.7648 0.000957997 0)
(63.7642 0.00094769 0)
(63.7635 0.000953933 0)
(63.7628 0.000983469 0)
(63.7621 0.00100974 0)
(63.7614 0.00102037 0)
(63.7607 0.00102575 0)
(63.76 0.00102477 0)
(63.7593 0.00101317 0)
(63.7586 0.0010004 0)
(63.7579 0.000999019 0)
(63.7572 0.00100824 0)
(63.7564 0.00100902 0)
(63.7558 0.000982433 0)
(63.7552 0.000935171 0)
(63.7546 0.000904351 0)
(63.7539 0.000914595 0)
(63.7532 0.000941374 0)
(63.7525 0.000964506 0)
(63.7519 0.0010057 0)
(63.7511 0.00106802 0)
(63.7503 0.00111156 0)
(63.7496 0.00110084 0)
(63.7489 0.00103814 0)
(63.7482 0.000970233 0)
(63.7477 0.000944049 0)
(63.747 0.000955966 0)
(63.7464 0.000979598 0)
(63.7457 0.00100091 0)
(63.7449 0.00101404 0)
(63.7442 0.00102501 0)
(63.7435 0.0010368 0)
(63.7428 0.00103768 0)
(63.7421 0.0010326 0)
(63.7414 0.00104132 0)
(63.7407 0.00105356 0)
(63.74 0.00104599 0)
(63.7393 0.00102695 0)
(63.7386 0.00101179 0)
(63.738 0.000996936 0)
(63.7373 0.00098093 0)
(63.7367 0.000972134 0)
(63.736 0.000971631 0)
(63.7354 0.000980082 0)
(63.7347 0.00100534 0)
(63.734 0.00103435 0)
(63.7332 0.00104573 0)
(63.7325 0.00103335 0)
(63.7317 0.000998962 0)
(63.7311 0.000968561 0)
(63.7304 0.000968339 0)
(63.7298 0.000992803 0)
(63.729 0.00102383 0)
(63.7283 0.00103953 0)
(63.7276 0.00102892 0)
(63.7269 0.00100719 0)
(63.7263 0.000988551 0)
(63.7256 0.00096516 0)
(63.725 0.00095385 0)
(63.7243 0.000966305 0)
(63.7237 0.00101629 0)
(63.7226 0.000994843 0)
(50.5476 8.99949e-05 0)
(85.4625 0.00043309 0)
(73.2938 0.000636584 0)
(60.6483 0.000579056 0)
(59.9041 0.000502059 0)
(63.364 0.000527706 0)
(64.8748 0.000561881 0)
(64.4244 0.000550719 0)
(63.8083 0.000532556 0)
(63.7067 0.000514873 0)
(63.8503 0.000471241 0)
(63.9356 0.000444199 0)
(63.9262 0.000472458 0)
(63.8977 0.000508415 0)
(63.8899 0.000509114 0)
(63.8958 0.000504625 0)
(63.9007 0.000524332 0)
(63.9012 0.00053973 0)
(63.9003 0.000507712 0)
(63.9001 0.000444525 0)
(63.9006 0.000402344 0)
(63.9011 0.000402309 0)
(63.9014 0.000426462 0)
(63.9018 0.000440897 0)
(63.902 0.000452231 0)
(63.9022 0.000495376 0)
(63.9026 0.000555919 0)
(63.9029 0.000609109 0)
(63.9033 0.000639774 0)
(63.9037 0.000610527 0)
(63.9039 0.000520722 0)
(63.9042 0.000436206 0)
(63.9048 0.000410421 0)
(63.9052 0.000413783 0)
(63.9058 0.000428462 0)
(63.9063 0.000458088 0)
(63.9065 0.000475551 0)
(63.9069 0.00047429 0)
(63.9074 0.00044797 0)
(63.9077 0.000425699 0)
(63.9082 0.000453728 0)
(63.9086 0.000491932 0)
(63.909 0.00047993 0)
(63.9093 0.000440946 0)
(63.9096 0.000437277 0)
(63.9099 0.000463472 0)
(63.9102 0.000471201 0)
(63.9106 0.000452505 0)
(63.9109 0.000421253 0)
(63.9112 0.000388225 0)
(63.9116 0.000370972 0)
(63.912 0.000380498 0)
(63.9124 0.000397116 0)
(63.9129 0.000403593 0)
(63.9134 0.000419317 0)
(63.9138 0.000438611 0)
(63.9143 0.000423829 0)
(63.9147 0.000401369 0)
(63.9151 0.000423731 0)
(63.9153 0.000482974 0)
(63.9156 0.000530238 0)
(63.9158 0.000524568 0)
(63.9159 0.000497502 0)
(63.9161 0.000485025 0)
(63.9164 0.000455699 0)
(63.9168 0.000409543 0)
(63.9172 0.000388786 0)
(63.9177 0.000397946 0)
(63.9182 0.000404481 0)
(63.9187 0.000396182 0)
(63.9192 0.000389434 0)
(63.9197 0.000393443 0)
(63.9201 0.000408054 0)
(63.9205 0.000424411 0)
(63.9209 0.000448353 0)
(63.9212 0.000468413 0)
(63.9214 0.000451643 0)
(63.9217 0.000438594 0)
(63.9219 0.000454826 0)
(63.9221 0.000454817 0)
(63.9224 0.000430124 0)
(63.9227 0.000405258 0)
(63.9232 0.000401077 0)
(63.9236 0.000405058 0)
(63.924 0.000394459 0)
(63.9245 0.000380376 0)
(63.925 0.000346928 0)
(63.9255 0.000297708 0)
(63.926 0.000296333 0)
(63.9264 0.000342646 0)
(63.9268 0.000377421 0)
(63.9271 0.000400738 0)
(63.9275 0.000447328 0)
(63.9277 0.000493497 0)
(63.928 0.000498968 0)
(63.9283 0.000485237 0)
(63.9286 0.000481953 0)
(63.9289 0.000475512 0)
(63.9292 0.000446754 0)
(63.9295 0.000405923 0)
(63.9299 0.00037623 0)
(63.9302 0.0003632 0)
(63.9307 0.000375228 0)
(63.9312 0.000415886 0)
(63.9317 0.000441006 0)
(63.9323 0.000416832 0)
(63.9327 0.00037805 0)
(63.9331 0.000370635 0)
(63.9334 0.000391607 0)
(63.9337 0.000413875 0)
(63.9341 0.000434819 0)
(63.9344 0.000466503 0)
(63.9348 0.000497282 0)
(63.9352 0.000489961 0)
(63.9355 0.000442179 0)
(63.9358 0.000406669 0)
(63.9361 0.000400146 0)
(63.9363 0.000394857 0)
(63.9366 0.000384449 0)
(63.9369 0.000370149 0)
(63.9373 0.00035467 0)
(63.9377 0.000348864 0)
(63.9382 0.00036197 0)
(63.9387 0.000388139 0)
(63.9391 0.000395976 0)
(63.9394 0.000374882 0)
(63.9398 0.000349056 0)
(63.9401 0.000343791 0)
(63.9405 0.000363417 0)
(63.9409 0.000381766 0)
(63.9414 0.000394256 0)
(63.9419 0.000418719 0)
(63.9423 0.000438646 0)
(63.9426 0.000437456 0)
(63.9429 0.000431266 0)
(63.9431 0.000430837 0)
(63.9434 0.000428557 0)
(63.9436 0.000431626 0)
(63.9441 0.000442597 0)
(63.9444 0.000427822 0)
(63.9447 0.000391562 0)
(63.9451 0.000378829 0)
(63.9455 0.000391241 0)
(63.9458 0.000405625 0)
(63.9462 0.000415321 0)
(63.9466 0.000418275 0)
(63.947 0.000406319 0)
(63.9474 0.000383466 0)
(63.9478 0.000369399 0)
(63.9483 0.000363291 0)
(63.9487 0.000355975 0)
(63.949 0.00036431 0)
(63.9493 0.000398931 0)
(63.9497 0.000422906 0)
(63.95 0.000403629 0)
(63.9504 0.000373848 0)
(63.9509 0.000362593 0)
(63.9513 0.000352449 0)
(63.9517 0.000343302 0)
(63.9521 0.00035119 0)
(63.9524 0.000376169 0)
(63.9527 0.000405845 0)
(63.953 0.000421458 0)
(63.9532 0.000419927 0)
(63.9536 0.000415719 0)
(63.9539 0.00042277 0)
(63.9543 0.000445395 0)
(63.9547 0.000462144 0)
(63.9551 0.000448067 0)
(63.9554 0.000417533 0)
(63.9556 0.000381916 0)
(63.9558 0.000339407 0)
(63.9561 0.000328524 0)
(63.9566 0.000355894 0)
(63.957 0.000366378 0)
(63.9574 0.000356721 0)
(63.9579 0.000356696 0)
(63.9583 0.000356361 0)
(63.9586 0.000359563 0)
(63.9589 0.000397612 0)
(63.9593 0.000452519 0)
(63.9597 0.000466742 0)
(63.96 0.000431834 0)
(63.9603 0.000389374 0)
(63.9606 0.000364978 0)
(63.9609 0.000351457 0)
(63.9612 0.000339373 0)
(63.9616 0.000340341 0)
(63.9619 0.000355953 0)
(63.9622 0.000364663 0)
(63.9626 0.000372204 0)
(63.963 0.000393294 0)
(63.9635 0.000404673 0)
(63.9639 0.000394862 0)
(63.9642 0.000387539 0)
(63.9647 0.000387828 0)
(63.965 0.000382855 0)
(63.9655 0.000380477 0)
(63.9659 0.000392649 0)
(63.9662 0.000398483 0)
(63.9666 0.000375662 0)
(63.967 0.000346264 0)
(63.9674 0.000338548 0)
(63.9676 0.000356149 0)
(63.968 0.000389278 0)
(63.9684 0.000406493 0)
(63.9687 0.000396673 0)
(63.9691 0.000399471 0)
(63.9695 0.000422424 0)
(63.97 0.0004257 0)
(63.9705 0.000398558 0)
(63.9709 0.000351556 0)
(63.9711 0.000298934 0)
(63.9715 0.000278216 0)
(63.9719 0.000300981 0)
(63.9722 0.000335915 0)
(63.9727 0.000369074 0)
(63.9731 0.000404625 0)
(63.9735 0.000429002 0)
(63.9739 0.000417892 0)
(63.9742 0.000368613 0)
(63.9746 0.000324277 0)
(63.9749 0.000328986 0)
(63.9753 0.000354664 0)
(63.9757 0.000354302 0)
(63.9761 0.000346282 0)
(63.9764 0.000350531 0)
(63.9767 0.000345194 0)
(63.9771 0.000326694 0)
(63.9775 0.000311789 0)
(63.9779 0.000303272 0)
(63.9783 0.000311435 0)
(63.9786 0.000359254 0)
(63.979 0.000420959 0)
(63.9794 0.000447148 0)
(63.9799 0.00044132 0)
(63.9802 0.000423742 0)
(63.9805 0.00040706 0)
(63.9808 0.000399636 0)
(63.9812 0.000394451 0)
(63.9816 0.000388336 0)
(63.982 0.000373669 0)
(63.9824 0.000344584 0)
(63.9827 0.000325616 0)
(63.9831 0.000337792 0)
(63.9834 0.000353521 0)
(63.9837 0.000356422 0)
(63.9841 0.000361865 0)
(63.9845 0.000404836 0)
(63.9852 0.0003964 0)
(50.5475 1.95877e-05 0)
(85.4624 -1.75496e-05 0)
(73.2927 -6.20492e-05 0)
(60.6463 -1.85036e-05 0)
(59.9018 7.89065e-05 0)
(63.3619 0.000131414 0)
(64.8725 0.000128927 0)
(64.4218 0.000141864 0)
(63.8053 0.000174057 0)
(63.7034 0.000151308 0)
(63.8467 8.11636e-05 0)
(63.9316 6.33126e-05 0)
(63.9216 0.000125975 0)
(63.8927 0.000179431 0)
(63.8846 0.00016525 0)
(63.89 0.00013819 0)
(63.8944 0.000131958 0)
(63.8946 0.000107634 0)
(63.8935 6.79317e-05 0)
(63.893 6.61867e-05 0)
(63.8932 0.000107259 0)
(63.8936 0.000160282 0)
(63.8936 0.000202248 0)
(63.8935 0.000224238 0)
(63.8935 0.000225873 0)
(63.8935 0.000208627 0)
(63.8936 0.000202695 0)
(63.8936 0.000228085 0)
(63.8936 0.0002716 0)
(63.8936 0.000278506 0)
(63.8938 0.000196208 0)
(63.8939 7.01668e-05 0)
(63.8939 -7.219e-06 0)
(63.894 -9.38868e-06 0)
(63.8939 5.87348e-05 0)
(63.8939 0.000172886 0)
(63.894 0.000243754 0)
(63.8941 0.000234725 0)
(63.894 0.000196421 0)
(63.894 0.000168416 0)
(63.8941 0.00016493 0)
(63.8941 0.000170823 0)
(63.8941 0.000176563 0)
(63.8942 0.00020491 0)
(63.8942 0.000262382 0)
(63.8942 0.00030123 0)
(63.8941 0.000284986 0)
(63.8941 0.000252834 0)
(63.8942 0.00022999 0)
(63.8943 0.00019264 0)
(63.8942 0.000141949 0)
(63.8942 9.90381e-05 0)
(63.8943 7.81833e-05 0)
(63.8943 9.53661e-05 0)
(63.8943 0.000141352 0)
(63.8943 0.000171202 0)
(63.8943 0.000158613 0)
(63.8943 0.000144724 0)
(63.8943 0.000168003 0)
(63.8944 0.000202181 0)
(63.8945 0.000250492 0)
(63.8946 0.000330539 0)
(63.8947 0.000388492 0)
(63.8948 0.000368409 0)
(63.8948 0.00027483 0)
(63.8948 0.000166943 0)
(63.8949 9.57406e-05 0)
(63.8949 7.01387e-05 0)
(63.8949 8.11346e-05 0)
(63.8948 0.000102135 0)
(63.8948 0.000118159 0)
(63.8948 0.0001343 0)
(63.8949 0.000145764 0)
(63.8949 0.000142461 0)
(63.895 0.000145004 0)
(63.8952 0.000183848 0)
(63.8952 0.000243917 0)
(63.8952 0.000307488 0)
(63.8953 0.000348853 0)
(63.8953 0.000329855 0)
(63.8954 0.000279659 0)
(63.8954 0.000245446 0)
(63.8954 0.00024387 0)
(63.8954 0.000250498 0)
(63.8954 0.000208194 0)
(63.8954 0.000137514 0)
(63.8955 9.97055e-05 0)
(63.8954 9.84843e-05 0)
(63.8953 0.000125302 0)
(63.8953 0.000172375 0)
(63.8954 0.000217601 0)
(63.8953 0.000249415 0)
(63.8953 0.000269973 0)
(63.8954 0.000282876 0)
(63.8954 0.000292085 0)
(63.8954 0.000294023 0)
(63.8954 0.000277113 0)
(63.8955 0.000248219 0)
(63.8956 0.000222919 0)
(63.8957 0.000204874 0)
(63.8958 0.000199599 0)
(63.8959 0.00019826 0)
(63.8958 0.000183725 0)
(63.8957 0.000160377 0)
(63.8958 0.000132608 0)
(63.8958 0.000116932 0)
(63.8958 0.000144796 0)
(63.8958 0.000200421 0)
(63.8959 0.000236898 0)
(63.8959 0.00024254 0)
(63.8959 0.000236061 0)
(63.896 0.00022841 0)
(63.8961 0.000222946 0)
(63.8962 0.000225064 0)
(63.8963 0.000234034 0)
(63.8963 0.000253521 0)
(63.8964 0.000288577 0)
(63.8964 0.000329841 0)
(63.8964 0.000346997 0)
(63.8964 0.000307486 0)
(63.8964 0.000238148 0)
(63.8963 0.000186712 0)
(63.8963 0.000159 0)
(63.8963 0.000167255 0)
(63.8964 0.000205663 0)
(63.8964 0.00022753 0)
(63.8965 0.000219954 0)
(63.8966 0.000202992 0)
(63.8966 0.000181793 0)
(63.8966 0.000143 0)
(63.8966 0.000110097 0)
(63.8967 0.000146615 0)
(63.8967 0.000239603 0)
(63.8968 0.000311729 0)
(63.8968 0.000343322 0)
(63.8969 0.000352965 0)
(63.8969 0.000336121 0)
(63.8969 0.000297778 0)
(63.8969 0.000268855 0)
(63.897 0.000254566 0)
(63.897 0.000241009 0)
(63.897 0.000236105 0)
(63.897 0.000243668 0)
(63.897 0.000240911 0)
(63.897 0.000216999 0)
(63.8971 0.00019874 0)
(63.8972 0.000190203 0)
(63.8972 0.000163282 0)
(63.8973 0.000136739 0)
(63.8974 0.000147468 0)
(63.8974 0.000191961 0)
(63.8974 0.000246107 0)
(63.8975 0.000288968 0)
(63.8975 0.000308172 0)
(63.8976 0.000283646 0)
(63.8975 0.000222763 0)
(63.8976 0.000184643 0)
(63.8976 0.000193173 0)
(63.8976 0.000219512 0)
(63.8976 0.000241838 0)
(63.8976 0.000258777 0)
(63.8977 0.000283195 0)
(63.8978 0.000313958 0)
(63.8978 0.000329066 0)
(63.8978 0.000319062 0)
(63.8977 0.000293147 0)
(63.8977 0.000271004 0)
(63.8978 0.000266064 0)
(63.8978 0.000276506 0)
(63.8979 0.000303317 0)
(63.898 0.000330722 0)
(63.898 0.000322754 0)
(63.8979 0.000284759 0)
(63.8979 0.000250863 0)
(63.8979 0.000226039 0)
(63.8979 0.000203071 0)
(63.8979 0.000192955 0)
(63.8979 0.000208761 0)
(63.8979 0.000227279 0)
(63.8978 0.000223335 0)
(63.8979 0.000221767 0)
(63.898 0.000239978 0)
(63.8982 0.000263984 0)
(63.8983 0.000288137 0)
(63.8983 0.000300692 0)
(63.8983 0.00028067 0)
(63.8983 0.000238462 0)
(63.8983 0.000219127 0)
(63.8984 0.000235647 0)
(63.8984 0.000244165 0)
(63.8984 0.000229915 0)
(63.8985 0.000228771 0)
(63.8985 0.000245143 0)
(63.8985 0.000252898 0)
(63.8985 0.00024823 0)
(63.8985 0.000234525 0)
(63.8985 0.000214695 0)
(63.8985 0.000211449 0)
(63.8985 0.000234234 0)
(63.8986 0.000240207 0)
(63.8987 0.000199786 0)
(63.8988 0.000166115 0)
(63.8988 0.000188385 0)
(63.8989 0.000235343 0)
(63.8989 0.00026791 0)
(63.899 0.000281297 0)
(63.899 0.000279949 0)
(63.899 0.000270068 0)
(63.899 0.000243729 0)
(63.899 0.000200988 0)
(63.899 0.000183224 0)
(63.8991 0.000207691 0)
(63.8992 0.000233808 0)
(63.8992 0.000245417 0)
(63.8992 0.000251861 0)
(63.8992 0.000239068 0)
(63.8992 0.000224447 0)
(63.8993 0.000249854 0)
(63.8993 0.000290444 0)
(63.8994 0.000299211 0)
(63.8995 0.000288465 0)
(63.8994 0.00028567 0)
(63.8994 0.000291791 0)
(63.8995 0.000296058 0)
(63.8995 0.000289397 0)
(63.8995 0.000284269 0)
(63.8996 0.000285332 0)
(63.8996 0.00026987 0)
(63.8996 0.000240408 0)
(63.8997 0.000219484 0)
(63.8997 0.000219082 0)
(63.8997 0.000243599 0)
(63.8996 0.000284019 0)
(63.8997 0.000308666 0)
(63.8997 0.0002905 0)
(63.8998 0.000263104 0)
(63.8998 0.000266418 0)
(63.8999 0.000282841 0)
(63.8999 0.000292239 0)
(63.8999 0.000292307 0)
(63.8999 0.000283641 0)
(63.8999 0.000269715 0)
(63.8999 0.000254946 0)
(63.9 0.000244189 0)
(63.9 0.000244516 0)
(63.9001 0.000250386 0)
(63.9002 0.000234009 0)
(63.9002 0.000201107 0)
(63.9003 0.000171576 0)
(63.9004 0.000191822 0)
(50.5477 -3.13539e-06 0)
(85.4624 5.13844e-05 0)
(73.2926 0.000172644 0)
(60.6463 0.000277165 0)
(59.9019 0.000284105 0)
(63.3619 0.000236864 0)
(64.8723 0.000233663 0)
(64.4217 0.000280525 0)
(63.8054 0.00030857 0)
(63.7035 0.000300028 0)
(63.8467 0.000325541 0)
(63.9316 0.00040409 0)
(63.9218 0.000464232 0)
(63.893 0.0004668 0)
(63.8849 0.000438642 0)
(63.8902 0.000415726 0)
(63.8948 0.000397841 0)
(63.8949 0.000371466 0)
(63.8935 0.000340324 0)
(63.893 0.00032333 0)
(63.8933 0.000337868 0)
(63.8934 0.000368447 0)
(63.8934 0.000376287 0)
(63.8936 0.000377755 0)
(63.8935 0.000395769 0)
(63.8935 0.000415291 0)
(63.8935 0.000455897 0)
(63.8934 0.000495184 0)
(63.8935 0.000474298 0)
(63.8936 0.000385286 0)
(63.8937 0.000279547 0)
(63.8937 0.000238984 0)
(63.8936 0.000264592 0)
(63.8936 0.000318574 0)
(63.8936 0.000371638 0)
(63.8937 0.000382552 0)
(63.8938 0.000368667 0)
(63.8939 0.000369148 0)
(63.8939 0.000353319 0)
(63.8941 0.000325931 0)
(63.8942 0.000343034 0)
(63.8942 0.000388971 0)
(63.8942 0.000443237 0)
(63.8941 0.000487261 0)
(63.8941 0.000485206 0)
(63.8941 0.000465364 0)
(63.8942 0.000441337 0)
(63.8942 0.000384756 0)
(63.8943 0.000329113 0)
(63.8943 0.000323652 0)
(63.8942 0.000341171 0)
(63.8943 0.000330935 0)
(63.8943 0.000309068 0)
(63.8943 0.000327404 0)
(63.8943 0.000375634 0)
(63.8944 0.000400263 0)
(63.8945 0.000392003 0)
(63.8945 0.000382263 0)
(63.8944 0.000379179 0)
(63.8943 0.000359761 0)
(63.8942 0.000344811 0)
(63.8942 0.000358062 0)
(63.8943 0.000359937 0)
(63.8945 0.000343109 0)
(63.8947 0.000330597 0)
(63.8947 0.000321562 0)
(63.8947 0.000314354 0)
(63.8948 0.000312572 0)
(63.8948 0.000325586 0)
(63.8949 0.000341506 0)
(63.8949 0.000342397 0)
(63.895 0.000338374 0)
(63.895 0.000342853 0)
(63.895 0.00034966 0)
(63.8949 0.000346912 0)
(63.8949 0.00035556 0)
(63.8949 0.000378835 0)
(63.8949 0.00038816 0)
(63.895 0.000382972 0)
(63.895 0.000362413 0)
(63.895 0.000332212 0)
(63.895 0.000311299 0)
(63.8951 0.000311569 0)
(63.8952 0.000330204 0)
(63.8953 0.000321442 0)
(63.8954 0.000292919 0)
(63.8955 0.000321535 0)
(63.8955 0.000387443 0)
(63.8955 0.000407393 0)
(63.8955 0.000384623 0)
(63.8955 0.000381081 0)
(63.8955 0.000406786 0)
(63.8955 0.00042914 0)
(63.8955 0.000450464 0)
(63.8955 0.000468736 0)
(63.8955 0.000445419 0)
(63.8955 0.000382306 0)
(63.8955 0.000315819 0)
(63.8955 0.000258035 0)
(63.8956 0.000219055 0)
(63.8956 0.0002335 0)
(63.8957 0.000307313 0)
(63.8958 0.000370662 0)
(63.8958 0.000365753 0)
(63.8959 0.000330493 0)
(63.8959 0.00032673 0)
(63.8959 0.000351487 0)
(63.896 0.000362238 0)
(63.896 0.000350625 0)
(63.896 0.00034007 0)
(63.8961 0.00033611 0)
(63.8961 0.000322822 0)
(63.8961 0.000299811 0)
(63.8961 0.000293446 0)
(63.8961 0.000308076 0)
(63.8961 0.000322427 0)
(63.8961 0.000339889 0)
(63.8962 0.000369221 0)
(63.8963 0.00039558 0)
(63.8964 0.00040457 0)
(63.8964 0.000404256 0)
(63.8964 0.000395339 0)
(63.8964 0.000351388 0)
(63.8964 0.00028744 0)
(63.8965 0.00025065 0)
(63.8965 0.000238536 0)
(63.8966 0.000231078 0)
(63.8966 0.000234464 0)
(63.8967 0.000261526 0)
(63.8968 0.000300698 0)
(63.8968 0.000326901 0)
(63.8967 0.000343349 0)
(63.8968 0.000355535 0)
(63.8968 0.000354912 0)
(63.8968 0.000350565 0)
(63.8969 0.000364022 0)
(63.8969 0.000393504 0)
(63.8969 0.000401892 0)
(63.8969 0.000382986 0)
(63.897 0.000373979 0)
(63.897 0.000371936 0)
(63.897 0.000359677 0)
(63.897 0.000353863 0)
(63.897 0.000347377 0)
(63.8971 0.000312966 0)
(63.8971 0.000272227 0)
(63.8972 0.000252205 0)
(63.8972 0.000231036 0)
(63.8972 0.000209178 0)
(63.8973 0.000224017 0)
(63.8973 0.0002811 0)
(63.8973 0.000338092 0)
(63.8974 0.000350912 0)
(63.8975 0.000338104 0)
(63.8976 0.000332575 0)
(63.8975 0.000322394 0)
(63.8975 0.000313757 0)
(63.8976 0.000326728 0)
(63.8976 0.000343163 0)
(63.8976 0.000340813 0)
(63.8976 0.000325195 0)
(63.8976 0.000319104 0)
(63.8977 0.000336161 0)
(63.8977 0.00036831 0)
(63.8977 0.000396504 0)
(63.8977 0.000402057 0)
(63.8977 0.000388205 0)
(63.8977 0.000374499 0)
(63.8977 0.0003581 0)
(63.8977 0.000335704 0)
(63.8978 0.000334254 0)
(63.8978 0.000352447 0)
(63.8978 0.000357171 0)
(63.8979 0.0003562 0)
(63.8979 0.000366692 0)
(63.8979 0.000368372 0)
(63.8979 0.000360605 0)
(63.898 0.000368908 0)
(63.898 0.000376115 0)
(63.898 0.000347937 0)
(63.898 0.000299674 0)
(63.898 0.000264085 0)
(63.898 0.000250638 0)
(63.898 0.000254294 0)
(63.8981 0.000266402 0)
(63.8982 0.000284856 0)
(63.8983 0.000306415 0)
(63.8983 0.000324855 0)
(63.8984 0.000338159 0)
(63.8984 0.000334747 0)
(63.8983 0.000313589 0)
(63.8984 0.000306952 0)
(63.8984 0.000324477 0)
(63.8985 0.000335435 0)
(63.8985 0.000333412 0)
(63.8986 0.000335046 0)
(63.8986 0.000335987 0)
(63.8985 0.000327534 0)
(63.8985 0.000313167 0)
(63.8986 0.000294011 0)
(63.8986 0.000266774 0)
(63.8986 0.000243617 0)
(63.8986 0.000247229 0)
(63.8987 0.000264901 0)
(63.8987 0.000271681 0)
(63.8988 0.000290634 0)
(63.8989 0.000339692 0)
(63.8988 0.000376559 0)
(63.8988 0.00036313 0)
(63.8989 0.000309503 0)
(63.8989 0.000259549 0)
(63.899 0.000257821 0)
(63.8991 0.000290594 0)
(63.899 0.000304404 0)
(63.8991 0.000286403 0)
(63.8992 0.000263385 0)
(63.8991 0.000263282 0)
(63.8991 0.000281457 0)
(63.8992 0.00027997 0)
(63.8993 0.000262178 0)
(63.8994 0.000278686 0)
(63.8994 0.000324726 0)
(63.8995 0.00034655 0)
(63.8995 0.000338183 0)
(63.8995 0.000322398 0)
(63.8995 0.000304538 0)
(63.8996 0.000290255 0)
(63.8996 0.000276433 0)
(63.8996 0.000252492 0)
(63.8997 0.000235976 0)
(63.8998 0.00026461 0)
(63.8997 0.00032305 0)
(63.8997 0.000348637 0)
(63.8998 0.000334424 0)
(63.8999 0.000314464 0)
(63.8999 0.000315433 0)
(63.9 0.000341893 0)
(63.9 0.000356074 0)
(63.9 0.000347934 0)
(63.9001 0.000345919 0)
(63.9001 0.00035174 0)
(63.9001 0.000346096 0)
(63.9001 0.000318978 0)
(63.9002 0.00027922 0)
(63.9002 0.00025505 0)
(63.9002 0.000266743 0)
(63.9002 0.000275026 0)
(63.9003 0.000242706 0)
(63.9004 0.000194916 0)
(63.9004 0.000203655 0)
(50.5476 6.73692e-06 0)
(85.4624 7.09758e-05 0)
(73.2927 0.000127209 0)
(60.6465 0.000117538 0)
(59.902 7.26215e-05 0)
(63.3619 7.84978e-05 0)
(64.8723 0.000114684 0)
(64.4216 9.51642e-05 0)
(63.8052 2.86044e-05 0)
(63.7032 3.1061e-05 0)
(63.8464 0.000128307 0)
(63.9313 0.000215153 0)
(63.9216 0.000230918 0)
(63.8928 0.000215619 0)
(63.8847 0.000216509 0)
(63.8901 0.000212287 0)
(63.8946 0.000161827 0)
(63.8948 0.000112125 0)
(63.8937 0.000106264 0)
(63.8931 0.000117762 0)
(63.8931 0.000145742 0)
(63.8935 0.000190145 0)
(63.8935 0.000203528 0)
(63.8933 0.000189182 0)
(63.8934 0.000194432 0)
(63.8935 0.000216306 0)
(63.8935 0.000232901 0)
(63.8937 0.000233942 0)
(63.8938 0.000210342 0)
(63.8937 0.000165035 0)
(63.8937 0.00012936 0)
(63.8936 0.000120498 0)
(63.8937 0.000111342 0)
(63.8937 9.53945e-05 0)
(63.8937 8.10643e-05 0)
(63.8938 7.02737e-05 0)
(63.8938 6.77434e-05 0)
(63.8939 8.17627e-05 0)
(63.894 9.8017e-05 0)
(63.8939 9.80149e-05 0)
(63.8939 0.000112953 0)
(63.894 0.000154571 0)
(63.8939 0.000212247 0)
(63.894 0.000270498 0)
(63.8941 0.000296615 0)
(63.8941 0.000287502 0)
(63.8942 0.000243957 0)
(63.8943 0.000179656 0)
(63.8942 0.000152234 0)
(63.8942 0.000168435 0)
(63.8942 0.000167098 0)
(63.8942 0.000130287 0)
(63.8942 9.70233e-05 0)
(63.8941 9.06766e-05 0)
(63.8942 9.98682e-05 0)
(63.8942 0.000117651 0)
(63.8943 0.000153407 0)
(63.8943 0.000203117 0)
(63.8944 0.000253366 0)
(63.8945 0.000284522 0)
(63.8945 0.000282016 0)
(63.8945 0.000242704 0)
(63.8945 0.000164228 0)
(63.8945 8.45712e-05 0)
(63.8946 4.88683e-05 0)
(63.8946 5.71662e-05 0)
(63.8947 7.58854e-05 0)
(63.8948 7.114e-05 0)
(63.8948 6.33974e-05 0)
(63.8948 7.02581e-05 0)
(63.8948 7.42561e-05 0)
(63.8949 8.7792e-05 0)
(63.895 0.000127875 0)
(63.895 0.000172165 0)
(63.895 0.000189002 0)
(63.8951 0.00020733 0)
(63.8951 0.000243614 0)
(63.8951 0.000247153 0)
(63.8952 0.000227517 0)
(63.8952 0.000218879 0)
(63.8952 0.000210994 0)
(63.8953 0.000195631 0)
(63.8952 0.000164456 0)
(63.8952 0.000127196 0)
(63.8953 8.09319e-05 0)
(63.8953 2.32679e-05 0)
(63.8953 1.52403e-05 0)
(63.8954 7.30918e-05 0)
(63.8954 0.000132845 0)
(63.8954 0.000170159 0)
(63.8955 0.000206071 0)
(63.8955 0.000246332 0)
(63.8955 0.000281292 0)
(63.8955 0.000308317 0)
(63.8955 0.000315213 0)
(63.8956 0.000283618 0)
(63.8956 0.000230483 0)
(63.8957 0.00018404 0)
(63.8958 0.000151326 0)
(63.8957 0.000128316 0)
(63.8957 0.000114168 0)
(63.8957 0.000117761 0)
(63.8957 0.000121972 0)
(63.8958 0.000100253 0)
(63.8959 7.68871e-05 0)
(63.8959 8.4676e-05 0)
(63.896 0.000113206 0)
(63.896 0.000139172 0)
(63.896 0.000161476 0)
(63.8961 0.000184402 0)
(63.8961 0.00019984 0)
(63.8962 0.000205703 0)
(63.8962 0.000206214 0)
(63.8963 0.000206751 0)
(63.8963 0.000212481 0)
(63.8963 0.000217346 0)
(63.8963 0.000216465 0)
(63.8963 0.000210422 0)
(63.8963 0.000201367 0)
(63.8963 0.000188391 0)
(63.8963 0.000175599 0)
(63.8964 0.000181878 0)
(63.8965 0.000186735 0)
(63.8964 0.000155072 0)
(63.8964 0.000116718 0)
(63.8964 9.9396e-05 0)
(63.8964 8.5072e-05 0)
(63.8965 6.50912e-05 0)
(63.8965 5.90231e-05 0)
(63.8966 8.96311e-05 0)
(63.8966 0.000143472 0)
(63.8967 0.000187801 0)
(63.8968 0.000224383 0)
(63.8968 0.000261436 0)
(63.8967 0.000276288 0)
(63.8967 0.000270299 0)
(63.8968 0.000272223 0)
(63.8968 0.000262713 0)
(63.8968 0.000232285 0)
(63.8968 0.000224315 0)
(63.8969 0.000233363 0)
(63.8969 0.000223114 0)
(63.8969 0.000200215 0)
(63.8969 0.000177012 0)
(63.8969 0.000144452 0)
(63.8969 0.000106285 0)
(63.897 8.75176e-05 0)
(63.8971 8.2888e-05 0)
(63.8971 7.57961e-05 0)
(63.8972 9.09549e-05 0)
(63.8972 0.000143519 0)
(63.8972 0.000201265 0)
(63.8972 0.000218195 0)
(63.8972 0.000194145 0)
(63.8973 0.000174553 0)
(63.8974 0.000169388 0)
(63.8974 0.000165777 0)
(63.8975 0.000175627 0)
(63.8975 0.000195594 0)
(63.8975 0.000209384 0)
(63.8975 0.000218295 0)
(63.8976 0.000228323 0)
(63.8976 0.000245803 0)
(63.8976 0.000274561 0)
(63.8976 0.000302719 0)
(63.8977 0.000311792 0)
(63.8977 0.000305016 0)
(63.8977 0.000305409 0)
(63.8977 0.000308025 0)
(63.8977 0.000289189 0)
(63.8976 0.000264801 0)
(63.8976 0.000245936 0)
(63.8977 0.000207326 0)
(63.8977 0.000166103 0)
(63.8977 0.00016156 0)
(63.8978 0.000176602 0)
(63.8978 0.00018037 0)
(63.8978 0.000185358 0)
(63.8979 0.000211326 0)
(63.8979 0.000232295 0)
(63.898 0.000215833 0)
(63.8981 0.00018438 0)
(63.8981 0.00016879 0)
(63.8981 0.000156837 0)
(63.8981 0.000139811 0)
(63.8982 0.000138144 0)
(63.8982 0.000155468 0)
(63.8982 0.00017207 0)
(63.8983 0.000183098 0)
(63.8984 0.000191209 0)
(63.8984 0.000189212 0)
(63.8985 0.000186355 0)
(63.8985 0.000199324 0)
(63.8985 0.00021397 0)
(63.8985 0.000217781 0)
(63.8985 0.000223956 0)
(63.8986 0.000232924 0)
(63.8986 0.000225896 0)
(63.8986 0.000192331 0)
(63.8986 0.000146194 0)
(63.8987 0.000111991 0)
(63.8988 0.000108105 0)
(63.8988 0.000144965 0)
(63.8988 0.000194185 0)
(63.8987 0.000209599 0)
(63.8987 0.000203834 0)
(63.8988 0.000211569 0)
(63.8989 0.000221344 0)
(63.899 0.000209287 0)
(63.899 0.000165933 0)
(63.899 0.000110076 0)
(63.899 0.000105377 0)
(63.899 0.000163738 0)
(63.899 0.000201197 0)
(63.899 0.000184372 0)
(63.8991 0.000173982 0)
(63.8991 0.000196323 0)
(63.8991 0.00021432 0)
(63.8992 0.000204591 0)
(63.8991 0.000182888 0)
(63.8991 0.000175909 0)
(63.8992 0.000189137 0)
(63.8993 0.000201788 0)
(63.8993 0.000208977 0)
(63.8994 0.000220317 0)
(63.8994 0.000220955 0)