/*--------------------------------*- C++ -*----------------------------------*\
| =========                 |                                                 |
| \\      /  F ield         | OpenFOAM: The Open Source CFD Toolbox           |
|  \\    /   O peration     | Version:  2406                                  |
|   \\  /    A nd           | Website:  www.openfoam.com                      |
|    \\/     M anipulation  |                                                 |
\*---------------------------------------------------------------------------*/
FoamFile
{
    version     2.0;
    format      ascii;
    arch        "LSB;label=32;scalar=64";
    class       surfaceScalarField;
    location    "0.1";
    object      alphaPhi0.air;
}
// * * * * * * * * * * * * * * * * * * * * * * * * * * * * * * * * * * * * * //

dimensions      [0 3 -1 0 0 0 0];

oriented        oriented;

internalField   nonuniform List<scalar> 
12225
(
0.138704
2.77569e-06
0.138694
9.20333e-06
0.138685
9.01051e-06
0.13868
5.67929e-06
0.138678
1.60416e-06
0.138675
2.93309e-06
0.138675
2.06529e-07
0.138675
-3.98813e-07
0.138674
1.35933e-06
0.138673
9.61317e-07
0.138673
-1.1373e-07
0.138674
-5.39049e-07
0.138674
-3.15206e-07
0.138673
1.3271e-06
0.13867
2.63979e-06
0.138668
1.73167e-06
0.138669
-6.14598e-07
0.138671
-2.02621e-06
0.138674
-2.93354e-06
0.138679
-4.95372e-06
0.138686
-6.7897e-06
0.138691
-5.44354e-06
0.138693
-2.02566e-06
0.138692
1.11298e-06
0.138689
3.29114e-06
0.138682
6.4122e-06
0.138675
7.1636e-06
0.138671
4.34793e-06
0.13867
1.26178e-06
0.138672
-2.21143e-06
0.138676
-4.53909e-06
0.138681
-4.58916e-06
0.138684
-3.25703e-06
0.138686
-1.52286e-06
0.138685
4.37073e-07
0.138683
2.23826e-06
0.13868
2.76417e-06
0.138679
7.42215e-07
0.138682
-2.33253e-06
0.138685
-3.13574e-06
0.138686
-1.06613e-06
0.138685
8.82241e-07
0.138684
7.22934e-07
0.138685
-2.34656e-07
0.138685
-1.42291e-07
0.138684
8.61086e-07
0.138682
1.6596e-06
0.13868
1.98339e-06
0.138679
1.57005e-06
0.138679
-2.39771e-07
0.138681
-1.76968e-06
0.138683
-2.41184e-06
0.138684
-1.23489e-06
0.138684
8.67092e-07
0.138682
1.52036e-06
0.138681
1.2973e-06
0.138681
-4.2007e-07
0.138683
-1.73058e-06
0.138685
-1.86752e-06
0.138686
-1.13892e-06
0.138686
9.01765e-08
0.138685
1.09399e-06
0.138683
1.93444e-06
0.13868
2.64717e-06
0.138678
1.61892e-06
0.13868
-1.05233e-06
0.138682
-2.75561e-06
0.138684
-1.85015e-06
0.138684
5.38962e-07
0.138682
1.73096e-06
0.138681
7.74613e-07
0.138682
-9.90771e-07
0.138684
-1.70036e-06
0.138685
-1.03314e-06
0.138685
4.48119e-08
0.138684
4.63435e-07
0.138684
1.48091e-07
0.138684
-1.44814e-07
0.138684
-8.62768e-08
0.138684
9.89351e-08
0.138684
1.26257e-07
0.138684
-1.13404e-07
0.138685
-3.10992e-07
0.138685
-2.55583e-07
0.138685
-1.70238e-07
0.138685
-1.98446e-07
0.138686
-3.77324e-07
0.138686
-2.1412e-07
0.138686
2.76636e-07
0.138685
5.9078e-07
0.138685
3.07068e-07
0.138685
-4.48677e-07
0.138686
-1.0514e-06
0.138687
-7.81544e-07
0.138687
1.69054e-07
0.138686
8.87872e-07
0.138685
7.23174e-07
0.138685
-6.84167e-08
0.138686
-8.08573e-07
0.138687
-9.45188e-07
0.138687
-5.11389e-07
0.138687
1.46327e-07
0.138687
6.99516e-07
0.138686
8.95483e-07
0.138685
6.13375e-07
0.138685
2.01042e-07
0.138685
-2.91963e-07
0.138686
-5.21733e-07
0.138686
-3.26113e-07
0.138686
2.87175e-07
0.138685
8.25755e-07
0.138684
7.49549e-07
0.138684
1.48019e-07
0.138685
-5.48515e-07
0.138685
-7.87389e-07
0.138686
-3.81365e-07
0.138685
4.17915e-07
0.138684
1.08452e-06
0.138683
1.31504e-06
0.138682
1.05908e-06
0.138681
6.01949e-07
0.138681
2.86661e-07
0.138681
1.70826e-07
0.138681
-9.5777e-08
0.138681
-5.00837e-07
0.138682
-6.27625e-07
0.138682
-2.40971e-07
0.138682
4.41295e-07
0.138681
8.5195e-07
0.13868
7.50502e-07
0.13868
1.85699e-07
0.13868
-2.8161e-07
0.138681
-2.66045e-07
0.138681
3.09762e-08
0.13868
1.5472e-07
0.138681
-2.09179e-07
0.138681
-7.13985e-07
0.138682
-5.98654e-07
0.138682
3.15206e-07
0.13868
1.25334e-06
0.138679
1.31835e-06
0.138679
5.10995e-07
0.138679
-8.57656e-07
0.138681
-1.80467e-06
0.138683
-1.42957e-06
0.138682
1.42958e-07
0.13868
1.99851e-06
0.138678
2.36511e-06
0.138677
1.34987e-06
0.138677
-9.11394e-08
0.138678
-1.5121e-06
0.138681
-2.52899e-06
0.138684
-2.89959e-06
0.138686
-2.20026e-06
0.138686
-3.15594e-07
0.138685
1.76925e-06
0.138682
2.91079e-06
0.138679
2.67343e-06
0.138678
1.38387e-06
0.138678
-3.80602e-07
0.13868
-2.12676e-06
0.138683
-3.23727e-06
0.138686
-3.05848e-06
0.138688
-1.45214e-06
0.138687
1.11075e-06
0.138684
2.76547e-06
0.138681
2.89377e-06
0.138679
1.88388e-06
0.138679
1.90492e-07
0.138681
-1.59803e-06
0.138683
-2.86996e-06
0.138687
-3.09898e-06
0.138689
-2.05174e-06
0.138689
-1.36937e-07
0.138687
1.52227e-06
0.138685
2.27705e-06
0.138683
2.14819e-06
0.138681
1.47368e-06
0.138681
6.45766e-07
0.138681
-5.83502e-07
0.138683
-1.85775e-06
0.138686
-2.58297e-06
0.138688
-2.0598e-06
0.138688
-3.30645e-07
0.138686
1.64591e-06
0.138684
2.57434e-06
0.138682
2.30258e-06
0.13868
1.37032e-06
0.13868
5.55955e-07
0.13868
-2.43372e-09
0.13868
-4.93481e-07
0.138681
-1.07199e-06
0.138683
-1.56129e-06
0.138684
-1.33555e-06
0.138684
-1.98881e-07
0.138683
1.36642e-06
0.138681
2.09642e-06
0.138679
1.6941e-06
0.138678
7.3882e-07
0.138679
-1.91115e-07
0.138679
-7.30927e-07
0.13868
-1.00774e-06
0.138682
-1.26746e-06
0.138683
-1.5552e-06
0.138685
-1.42493e-06
0.138685
-5.69159e-07
0.138684
7.98738e-07
0.138683
1.75136e-06
0.138681
1.87831e-06
0.138679
1.23494e-06
0.138679
3.00407e-07
0.13868
-6.52897e-07
0.138681
-1.28625e-06
0.138683
-1.61174e-06
0.138684
-1.71806e-06
0.138686
-1.70652e-06
0.138688
-1.52857e-06
0.138689
-9.42323e-07
0.138689
9.63831e-08
0.138687
1.20055e-06
0.138685
1.88452e-06
0.138684
1.88633e-06
0.138682
1.30826e-06
0.138682
5.49107e-07
0.138682
-2.06323e-07
0.138683
-7.51146e-07
0.138684
-1.12909e-06
0.138685
-1.42605e-06
0.138687
-1.71652e-06
0.138689
-2.0317e-06
0.138691
-1.89992e-06
0.138692
-8.61071e-07
0.138691
9.41623e-07
0.138689
2.21672e-06
0.138686
2.63827e-06
0.138684
2.33356e-06
0.138682
1.70252e-06
0.138681
1.12105e-06
0.13868
6.00715e-07
0.13868
1.03516e-07
0.138681
-4.92769e-07
0.138682
-1.23748e-06
0.138684
-2.01213e-06
0.138687
-2.67413e-06
0.13869
-3.0859e-06
0.138693
-3.19876e-06
0.138696
-3.05135e-06
0.138699
-2.74117e-06
0.138701
-2.288e-06
-1.1768e-06
0.138711
-7.06477e-07
0.138721
-8.61185e-07
0.138728
1.34894e-06
0.138731
2.75942e-06
0.138733
-2.7059e-07
0.138733
3.14354e-06
0.138731
1.73104e-06
0.13873
6.31906e-07
0.13873
1.29932e-06
0.138731
2.96636e-07
0.13873
9.65483e-07
0.138728
1.79214e-06
0.138726
1.1653e-06
0.138726
1.33644e-06
0.138728
1.0851e-06
0.138728
1.30245e-06
0.138725
2.33977e-06
0.138721
2.15695e-06
0.138716
1.93189e-06
0.138708
3.05355e-06
0.138699
2.79011e-06
0.138694
-4.69829e-07
0.138695
-3.17424e-06
0.138699
-2.97052e-06
0.138706
-3.9038e-06
0.138718
-5.82944e-06
0.138731
-5.12698e-06
0.138737
-2.16e-06
0.138737
1.61122e-06
0.13873
3.98898e-06
0.138722
4.02403e-06
0.138714
3.3574e-06
0.138708
2.27674e-06
0.138707
1.62975e-07
0.13871
-2.37705e-06
0.138715
-3.32648e-06
0.13872
-1.67598e-06
0.138719
8.54395e-07
0.138715
1.84183e-06
0.138711
8.09051e-07
0.13871
2.81561e-07
0.13871
1.12285e-06
0.138709
1.08904e-06
0.13871
-8.99821e-07
0.138712
-2.15622e-06
0.138714
-1.45496e-06
0.138716
-2.24549e-07
0.138717
1.06638e-06
0.138716
2.29919e-06
0.138714
2.51531e-06
0.138711
1.18329e-06
0.13871
-1.81718e-06
0.138712
-3.55454e-06
0.138716
-2.54077e-06
0.138718
-3.94812e-07
0.138718
1.17323e-06
0.138717
7.06126e-07
0.138715
-4.25833e-07
0.138714
-8.96949e-07
0.138714
-3.93598e-07
0.138714
-3.00852e-08
0.138715
-4.65574e-07
0.138718
-7.01553e-07
0.13872
4.38762e-07
0.13872
2.1684e-06
0.138716
2.59495e-06
0.138712
9.07157e-07
0.138712
-1.27393e-06
0.138714
-1.77865e-06
0.138716
-5.61203e-07
0.138717
7.0062e-07
0.138715
7.76322e-07
0.138713
-2.3749e-07
0.138713
-1.08741e-06
0.138714
-8.78655e-07
0.138715
1.85645e-07
0.138714
1.02309e-06
0.138713
9.60114e-07
0.138712
1.71911e-07
0.138713
-5.48293e-07
0.138714
-6.42325e-07
0.138714
-4.20947e-07
0.138714
-4.8636e-07
0.138715
-9.2227e-07
0.138716
-1.21887e-06
0.138717
-9.30838e-07
0.138717
-3.01494e-07
0.138716
2.37601e-07
0.138716
2.04302e-07
0.138717
1.15081e-08
0.138717
-1.90643e-07
0.138717
-1.10783e-07
0.138716
-1.66008e-09
0.138715
1.52894e-07
0.138715
2.08771e-07
0.138716
2.29305e-07
0.138716
1.65434e-08
0.138717
-3.61932e-07
0.138716
-6.80792e-07
0.138716
-7.53567e-07
0.138716
-4.4696e-07
0.138716
-2.06183e-08
0.138717
3.89441e-07
0.138717
6.85375e-07
0.138717
8.71825e-07
0.138716
8.32263e-07
0.138715
4.66128e-07
0.138715
-2.01495e-08
0.138715
-2.94501e-07
0.138715
-4.87162e-08
0.138715
6.19801e-07
0.138715
1.10984e-06
0.138714
8.86075e-07
0.138714
1.13625e-08
0.138714
-7.27349e-07
0.138714
-5.14609e-07
0.138713
8.45924e-07
0.138712
2.47916e-06
0.13871
3.31418e-06
0.138708
2.76842e-06
0.138708
1.18507e-06
0.138708
-5.32293e-07
0.13871
-1.11442e-06
0.13871
-6.00222e-07
0.138709
4.68693e-07
0.138708
9.33166e-07
0.138707
7.40378e-07
0.138707
3.50031e-07
0.138707
2.3383e-07
0.138708
4.76552e-07
0.138707
7.25253e-07
0.138706
5.85506e-07
0.138706
1.48449e-07
0.138706
-3.25401e-07
0.138707
-4.68135e-07
0.138707
-4.01088e-07
0.138707
-4.28471e-07
0.138707
-6.13622e-07
0.138708
-5.78432e-07
0.138709
-1.81799e-07
0.13871
6.00681e-07
0.138709
1.10867e-06
0.138707
8.79987e-07
0.138705
1.25497e-07
0.138705
-7.86227e-07
0.138706
-1.05466e-06
0.138708
-4.04007e-07
0.138711
2.86433e-07
0.138712
2.24656e-07
0.138712
-7.78486e-07
0.138713
-2.25999e-06
0.138714
-3.19623e-06
0.138714
-3.08442e-06
0.138714
-1.96916e-06
0.138714
-2.60886e-07
0.138714
1.36711e-06
0.138715
2.15875e-06
0.138716
1.80342e-06
0.138717
4.85024e-07
0.138717
-1.19853e-06
0.138718
-2.53568e-06
0.138718
-3.0373e-06
0.138717
-2.62647e-06
0.138717
-1.42068e-06
0.138718
1.14591e-08
0.13872
1.33883e-06
0.138721
1.95054e-06
0.138721
1.51063e-06
0.138721
1.7563e-07
0.138721
-1.52271e-06
0.138721
-2.8241e-06
0.138721
-3.13542e-06
0.138721
-2.21998e-06
0.138721
-3.93069e-07
0.138721
1.51218e-06
0.138721
2.57959e-06
0.138721
2.45917e-06
0.138721
1.52865e-06
0.138721
4.1817e-07
0.138721
-3.97151e-07
0.13872
-8.19426e-07
0.138718
-9.22236e-07
0.138717
-6.03178e-07
0.138716
3.32767e-07
0.138715
2.05801e-06
0.138714
3.77645e-06
0.138712
4.52217e-06
0.13871
3.84155e-06
0.138708
2.17739e-06
0.138707
4.90185e-07
0.138707
-5.19283e-07
0.138707
-8.21613e-07
0.138706
-7.63861e-07
0.138706
-6.40987e-07
0.138706
-3.05751e-07
0.138707
4.69973e-07
0.138707
1.50395e-06
0.138707
2.05815e-06
0.138706
1.57883e-06
0.138706
2.12009e-07
0.138706
-1.28985e-06
0.138708
-2.28575e-06
0.138709
-2.57358e-06
0.13871
-2.37089e-06
0.13871
-1.98411e-06
0.138711
-1.49454e-06
0.138713
-8.2136e-07
0.138715
-1.59517e-07
0.138716
4.549e-07
0.138717
7.13221e-07
0.138717
3.63211e-07
0.138716
-4.75655e-07
0.138717
-1.48678e-06
0.138717
-2.18044e-06
0.138718
-2.29122e-06
0.138718
-1.89363e-06
0.138718
-1.29574e-06
0.138718
-7.65577e-07
0.138718
-2.64326e-07
0.138719
2.95052e-07
0.13872
1.05451e-06
0.13872
1.81225e-06
0.138719
2.23411e-06
0.138717
2.10589e-06
0.138716
1.46874e-06
0.138714
6.35698e-07
0.138713
-2.52822e-08
0.138712
-4.25505e-07
0.138711
-6.01692e-07
0.13871
-7.7457e-07
0.138709
-1.11526e-06
0.138709
-1.33291e-06
0.138711
-1.05138e-06
0.138714
-4.87989e-07
0.138717
-2.95036e-08
0.138719
6.64191e-08
0.138721
-2.54559e-07
0.138723
-7.68088e-07
0.138725
-1.30129e-06
0.138727
-1.75751e-06
0.138728
-2.14269e-06
0.13873
-2.48768e-06
0.13873
-2.78767e-06
0.138731
-2.99195e-06
0.138731
-3.00969e-06
0.13873
-2.7857e-06
0.138729
-2.35328e-06
0.138729
-1.84534e-06
0.138728
-1.4104e-06
-7.44289e-07
0.138708
-2.18427e-06
0.138707
4.10417e-09
0.13871
-1.19718e-06
0.138714
-9.05834e-07
0.138715
-1.61487e-06
0.138716
2.48987e-06
0.138714
3.40529e-06
0.138713
1.53629e-06
0.138714
4.66774e-07
0.138714
4.03916e-07
0.138715
-3.84004e-07
0.138718
-8.34921e-07
0.138721
-1.98746e-06
0.138724
-1.599e-06
0.138725
-3.61664e-07
0.138726
2.68815e-07
0.138728
3.47239e-07
0.13873
2.9081e-07
0.138731
1.03262e-06
0.138732
2.50321e-06
0.138731
3.15198e-06
0.138728
3.18259e-06
0.138721
3.58928e-06
0.138715
3.37841e-06
0.138708
2.64881e-06
0.138701
1.29838e-06
0.138696
-6.21114e-07
0.138696
-2.11555e-06
0.138701
-2.72953e-06
0.138707
-1.96911e-06
0.138711
-8.30021e-07
0.138715
-5.54648e-07
0.138718
-3.41207e-09
0.138717
9.87013e-07
0.138714
6.24925e-07
0.138711
-9.9319e-07
0.138712
-1.7855e-06
0.138713
-6.35775e-07
0.138714
1.34266e-06
0.138713
1.7936e-06
0.138712
6.9395e-07
0.138713
-1.35699e-08
0.138714
3.22297e-07
0.138713
6.46968e-07
0.13871
5.75607e-07
0.138708
3.88151e-07
0.138708
-1.67322e-07
0.13871
-1.15643e-06
0.138714
-1.50969e-06
0.138717
-7.68929e-07
0.138717
9.75294e-07
0.138714
1.72103e-06
0.138709
1.12586e-06
0.138707
-2.24033e-07
0.138708
-1.40886e-06
0.138711
-1.82274e-06
0.138713
-1.83997e-06
0.138715
-1.72365e-06
0.138715
-1.21733e-06
0.138714
3.07738e-07
0.138712
1.96466e-06
0.13871
2.07687e-06
0.138709
2.26836e-07
0.138711
-1.59474e-06
0.138714
-1.2586e-06
0.138716
9.14847e-07
0.138715
2.36196e-06
0.138712
1.49632e-06
0.138711
-6.07173e-07
0.138712
-1.75076e-06
0.138714
-1.15052e-06
0.138714
1.09369e-07
0.138713
6.08654e-07
0.138712
1.38858e-07
0.138712
-3.84564e-07
0.138712
-1.68559e-07
0.138713
5.3244e-07
0.138713
8.17893e-07
0.138713
1.95924e-07
0.138713
-8.23617e-07
0.138714
-1.33156e-06
0.138714
-1.06628e-06
0.138714
-5.98292e-07
0.138714
-5.84111e-07
0.138714
-9.22837e-07
0.138714
-9.8206e-07
0.138714
-4.71411e-07
0.138714
1.3342e-07
0.138714
1.7199e-07
0.138714
-3.11729e-07
0.138715
-6.89988e-07
0.138715
-4.04348e-07
0.138715
3.2573e-07
0.138714
8.28911e-07
0.138714
6.25874e-07
0.138714
-9.36888e-08
0.138715
-8.48994e-07
0.138716
-1.13699e-06
0.138716
-8.9106e-07
0.138716
-3.54739e-07
0.138715
2.85194e-07
0.138714
6.59047e-07
0.138714
7.03627e-07
0.138714
4.82735e-07
0.138715
2.88619e-07
0.138715
3.24866e-07
0.138715
5.84226e-07
0.138714
8.08538e-07
0.138713
8.00001e-07
0.138713
5.62861e-07
0.138713
2.85605e-07
0.138714
1.80088e-07
0.138714
2.38652e-07
0.138714
3.95733e-07
0.138713
6.4064e-07
0.138711
1.09252e-06
0.13871
1.91207e-06
0.13871
2.92578e-06
0.138709
3.53406e-06
0.138709
3.08244e-06
0.138709
1.54969e-06
0.138708
-2.93005e-07
0.138709
-1.35935e-06
0.138709
-1.01912e-06
0.138709
4.35044e-07
0.138708
1.82431e-06
0.138707
2.13286e-06
0.138706
1.2663e-06
0.138706
1.00693e-07
0.138707
-3.85703e-07
0.138708
2.13688e-08
0.138707
7.43997e-07
0.138707
9.39061e-07
0.138706
3.52166e-07
0.138706
-6.0035e-07
0.138707
-1.23485e-06
0.138708
-1.2154e-06
0.138708
-6.96611e-07
0.138707
-8.86102e-08
0.138707
3.01002e-07
0.138707
5.28113e-07
0.138707
6.99878e-07
0.138707
7.79157e-07
0.138707
6.3935e-07
0.138706
1.54345e-07
0.138705
-4.87311e-07
0.138706
-9.63467e-07
0.138708
-1.28634e-06
0.138709
-1.65109e-06
0.138711
-2.26578e-06
0.138712
-3.03776e-06
0.138712
-3.44029e-06
0.138712
-2.97938e-06
0.138711
-1.52311e-06
0.138711
3.98525e-07
0.13871
1.84856e-06
0.13871
2.09082e-06
0.138711
1.02241e-06
0.138712
-8.45198e-07
0.138714
-2.68535e-06
0.138715
-3.74417e-06
0.138716
-3.61575e-06
0.138715
-2.37934e-06
0.138715
-5.62824e-07
0.138714
9.96072e-07
0.138713
1.66255e-06
0.138714
1.22089e-06
0.138716
-3.49722e-08
0.138717
-1.49299e-06
0.138718
-2.6051e-06
0.138719
-3.04376e-06
0.138718
-2.69509e-06
0.138717
-1.55975e-06
0.138717
1.58162e-07
0.138716
1.92964e-06
0.138716
3.00653e-06
0.138716
2.84224e-06
0.138716
1.53827e-06
0.138716
-1.47961e-07
0.138717
-1.24141e-06
0.138717
-1.21029e-06
0.138717
-2.07876e-07
0.138715
1.20455e-06
0.138713
2.61531e-06
0.138711
3.90427e-06
0.13871
4.89824e-06
0.138709
5.22052e-06
0.138708
4.51529e-06
0.138708
2.84846e-06
0.138707
8.24011e-07
0.138708
-7.29312e-07
0.138708
-1.2872e-06
0.138708
-8.9927e-07
0.138708
-1.44161e-08
0.138706
8.34782e-07
0.138705
1.40326e-06
0.138705
1.71229e-06
0.138706
1.66159e-06
0.138706
1.06972e-06
0.138706
-8.28936e-08
0.138707
-1.55201e-06
0.138707
-2.90685e-06
0.138708
-3.71167e-06
0.13871
-3.69012e-06
0.138711
-2.92068e-06
0.138711
-1.83743e-06
0.138711
-8.96976e-07
0.138711
-3.57319e-07
0.138712
-2.16578e-07
0.138713
-3.14855e-07
0.138714
-6.00396e-07
0.138715
-1.08667e-06
0.138715
-1.75713e-06
0.138715
-2.39775e-06
0.138716
-2.71025e-06
0.138716
-2.4967e-06
0.138717
-1.80193e-06
0.138717
-8.59598e-07
0.138716
1.00385e-07
0.138716
9.24673e-07
0.138715
1.60536e-06
0.138715
2.15417e-06
0.138715
2.51345e-06
0.138714
2.56934e-06
0.138713
2.22378e-06
0.138712
1.52179e-06
0.138712
6.97143e-07
0.138711
-2.79841e-08
0.138711
-4.79268e-07
0.138711
-6.97402e-07
0.138711
-8.84737e-07
0.138711
-1.11171e-06
0.138711
-1.2902e-06
0.138712
-1.38077e-06
0.138713
-1.42833e-06
0.138715
-1.55463e-06
0.138716
-1.83322e-06
0.138718
-2.24332e-06
0.138719
-2.73517e-06
0.138721
-3.2121e-06
0.138722
-3.59163e-06
0.138724
-3.81557e-06
0.138725
-3.8683e-06
0.138725
-3.7629e-06
0.138726
-3.49582e-06
0.138726
-3.06391e-06
0.138726
-2.4993e-06
0.138726
-1.88242e-06
0.138726
-1.3325e-06
-6.61771e-07
0.138719
2.19248e-06
0.138716
2.82554e-06
0.138712
3.14342e-06
0.138705
6.5786e-06
0.138702
1.53548e-06
0.138704
1.63723e-07
0.138703
4.06053e-06
0.138699
5.62723e-06
0.138693
6.49917e-06
0.138688
5.37849e-06
0.138686
1.66942e-06
0.138685
2.73653e-07
0.138683
-3.48456e-07
0.138683
-1.8072e-06
0.138686
-2.80019e-06
0.138689
-2.80425e-06
0.138691
-1.56038e-06
0.138693
-1.46864e-06
0.138697
-3.33151e-06
0.138703
-3.50639e-06
0.138707
-9.63805e-07
0.138711
-2.95236e-07
0.138715
-8.6782e-07
0.138718
9.51794e-08
0.138719
2.31696e-06
0.138716
4.27956e-06
0.138711
4.38819e-06
0.138707
1.79797e-06
0.138706
-1.65668e-06
0.138707
-2.72064e-06
0.138708
-2.5548e-06
0.13871
-2.35537e-06
0.138712
-1.71917e-06
0.138712
2.94739e-07
0.13871
2.68129e-06
0.138706
3.06311e-06
0.138704
7.80752e-07
0.138705
-1.89427e-06
0.138708
-1.91034e-06
0.138711
-6.14487e-07
0.138712
-5.4959e-07
0.138713
-9.93707e-07
0.138713
-2.31754e-07
0.138713
1.10058e-06
0.138712
1.22662e-06
0.138712
7.09882e-07
0.138711
4.83213e-07
0.138711
-4.28766e-07
0.138711
-2.03021e-06
0.138713
-2.947e-06
0.138716
-2.02216e-06
0.138718
-3.59835e-07
0.138719
8.25828e-07
0.138718
9.30208e-07
0.138716
4.84166e-07
0.138714
2.30038e-07
0.138711
3.69041e-07
0.138709
4.60356e-07
0.138708
7.0253e-08
0.138709
-4.57891e-07
0.138711
-2.66908e-07
0.138713
3.28492e-07
0.138713
3.41705e-07
0.138711
-4.77406e-07
0.138711
-1.07111e-06
0.138713
-5.0195e-07
0.138714
7.18912e-07
0.138715
1.20632e-06
0.138714
4.66193e-07
0.138712
-6.52507e-07
0.138712
-1.04904e-06
0.138713
-4.70215e-07
0.138713
3.84324e-07
0.138713
7.60511e-07
0.138712
4.76346e-07
0.138712
-7.45632e-08
0.138713
-4.22745e-07
0.138714
-4.28018e-07
0.138714
-3.6798e-07
0.138714
-4.81299e-07
0.138713
-7.64874e-07
0.138713
-9.67798e-07
0.138714
-9.24746e-07
0.138714
-7.82434e-07
0.138714
-6.87226e-07
0.138713
-5.95109e-07
0.138713
-3.74247e-07
0.138713
-1.60643e-07
0.138714
-2.02127e-07
0.138714
-5.44519e-07
0.138714
-8.38329e-07
0.138714
-6.39529e-07
0.138715
1.26785e-08
0.138715
5.92199e-07
0.138715
5.4458e-07
0.138715
-1.20546e-07
0.138715
-8.75739e-07
0.138715
-1.14707e-06
0.138715
-7.65956e-07
0.138715
-8.42934e-08
0.138714
5.81131e-07
0.138714
9.26721e-07
0.138714
8.95302e-07
0.138714
5.71024e-07
0.138714
1.85962e-07
0.138714
1.94896e-09
0.138715
2.72944e-07
0.138715
9.06736e-07
0.138714
1.48662e-06
0.138713
1.54555e-06
0.138712
9.51202e-07
0.138712
6.58165e-08
0.138713
-4.35007e-07
0.138713
-3.73964e-08
0.138713
1.23087e-06
0.138711
2.73067e-06
0.138709
3.74536e-06
0.138708
3.84157e-06
0.138709
3.05161e-06
0.13871
1.80368e-06
0.138711
6.08414e-07
0.138711
-1.24958e-07
0.13871
-1.9555e-07
0.138708
3.2604e-07
0.138708
1.17316e-06
0.138708
1.89886e-06
0.138708
2.03559e-06
0.138708
1.43242e-06
0.138707
4.62416e-07
0.138707
-2.07845e-07
0.138707
-1.42079e-07
0.138707
4.77116e-07
0.138707
9.57524e-07
0.138707
7.20655e-07
0.138707
-2.50076e-07
0.138707
-1.36256e-06
0.138707
-1.77687e-06
0.138708
-1.19475e-06
0.138708
-4.90004e-08
0.138707
9.19868e-07
0.138707
1.22084e-06
0.138706
9.3089e-07
0.138707
4.50917e-07
0.138707
7.89247e-08
0.138708
-1.33684e-07
0.138707
-4.34422e-07
0.138708
-1.02934e-06
0.138708
-1.91052e-06
0.138709
-2.8392e-06
0.138711
-3.54324e-06
0.138711
-3.79977e-06
0.138711
-3.44402e-06
0.138711
-2.4269e-06
0.13871
-8.93773e-07
0.13871
6.78785e-07
0.13871
1.57549e-06
0.138711
1.28386e-06
0.138712
-1.16957e-07
0.138713
-2.01301e-06
0.138714
-3.59973e-06
0.138715
-4.24566e-06
0.138715
-3.71223e-06
0.138715
-2.19383e-06
0.138714
-2.29732e-07
0.138714
1.30949e-06
0.138714
1.72623e-06
0.138714
8.64308e-07
0.138715
-9.85633e-07
0.138717
-2.84356e-06
0.138718
-3.86375e-06
0.138718
-3.62408e-06
0.138718
-2.31819e-06
0.138717
-5.16682e-07
0.138716
1.20124e-06
0.138715
2.42626e-06
0.138716
2.90511e-06
0.138716
2.50174e-06
0.138716
1.32931e-06
0.138716
-1.878e-07
0.138716
-1.25164e-06
0.138716
-1.19389e-06
0.138716
1.48038e-07
0.138715
2.2965e-06
0.138713
4.45399e-06
0.138711
5.93818e-06
0.138709
6.40853e-06
0.138709
5.8861e-06
0.138709
4.6059e-06
0.138709
2.87191e-06
0.138708
1.04508e-06
0.138708
-4.4345e-07
0.138708
-1.18866e-06
0.138708
-9.34517e-07
0.138708
1.71165e-07
0.138707
1.48655e-06
0.138706
2.36538e-06
0.138705
2.4632e-06
0.138705
1.74196e-06
0.138706
4.68749e-07
0.138707
-9.75647e-07
0.138708
-2.34999e-06
0.138708
-3.49947e-06
0.138709
-4.25738e-06
0.138709
-4.38223e-06
0.13871
-3.75892e-06
0.138711
-2.59319e-06
0.138712
-1.35598e-06
0.138712
-5.51002e-07
0.138712
-3.71258e-07
0.138712
-7.47747e-07
0.138713
-1.35947e-06
0.138714
-1.97379e-06
0.138715
-2.47608e-06
0.138715
-2.81376e-06
0.138715
-2.93817e-06
0.138716
-2.76359e-06
0.138716
-2.20443e-06
0.138716
-1.25436e-06
0.138716
-1.3828e-08
0.138716
1.26995e-06
0.138715
2.30911e-06
0.138715
2.94443e-06
0.138714
3.16948e-06
0.138714
3.06529e-06
0.138713
2.69614e-06
0.138712
2.09593e-06
0.138712
1.33304e-06
0.138711
5.09803e-07
0.138711
-2.21658e-07
0.138711
-7.67693e-07
0.138711
-1.14819e-06
0.138712
-1.44427e-06
0.138712
-1.72486e-06
0.138713
-2.02755e-06
0.138714
-2.37685e-06
0.138715
-2.77955e-06
0.138716
-3.19905e-06
0.138718
-3.60958e-06
0.138719
-4.01223e-06
0.13872
-4.39124e-06
0.138721
-4.69882e-06
0.138722
-4.8534e-06
0.138723
-4.7959e-06
0.138724
-4.51841e-06
0.138725
-4.0437e-06
0.138725
-3.41912e-06
0.138725
-2.71399e-06
0.138725
-2.01025e-06
0.138725
-1.41049e-06
-6.83332e-07
0.138706
7.41643e-07
0.138709
-1.46534e-07
0.138714
-1.94965e-06
0.138721
-6.52031e-07
0.13872
2.35498e-06
0.138719
1.54287e-06
0.138724
-1.14008e-06
0.138732
-2.40116e-06
0.138741
-2.2153e-06
0.138745
9.78447e-07
0.138742
4.76867e-06
0.138737
5.83069e-06
0.138732
4.11534e-06
0.138728
2.67129e-06
0.138722
3.026e-06
0.138717
1.86001e-06
0.138716
-3.16956e-07
0.138714
-1.18069e-08
0.13871
1.38155e-06
0.138707
-2.58067e-07
0.138707
-1.8535e-06
0.138708
-8.66291e-07
0.138708
-7.90427e-07
0.138711
-2.5978e-06
0.138717
-3.71399e-06
0.138724
-2.77984e-06
0.138728
1.20236e-07
0.138727
2.82827e-06
0.138723
2.63269e-06
0.138718
1.85171e-06
0.138713
2.10472e-06
0.13871
1.54243e-06
0.138708
-1.34671e-07
0.13871
-1.31239e-06
0.138713
-3.90325e-07
0.138714
1.28507e-06
0.138714
1.52426e-06
0.138712
1.72946e-07
0.13871
-6.6921e-07
0.13871
-4.05234e-07
0.13871
-1.2594e-07
0.138709
-5.49514e-07
0.13871
-8.83217e-07
0.138712
-9.31388e-07
0.138714
-1.17662e-06
0.138716
-1.35211e-06
0.138717
-5.03457e-07
0.138716
1.328e-06
0.138711
2.38544e-06
0.138706
2.13255e-06
0.138703
1.05037e-06
0.138703
-6.92975e-07
0.138706
-1.91713e-06
0.138709
-2.22404e-06
0.138712
-1.9011e-06
0.138713
-1.22775e-06
0.138714
-7.42672e-08
0.138713
1.29106e-06
0.138711
1.74129e-06
0.13871
4.90736e-07
0.138711
-1.4057e-06
0.138714
-2.048e-06
0.138715
-8.75353e-07
0.138714
7.38742e-07
0.138711
1.06833e-06
0.138711
1.81764e-07
0.138712
-7.07073e-07
0.138714
-7.00003e-07
0.138715
-1.28437e-07
0.138714
2.81863e-07
0.138712
2.56171e-07
0.138712
1.19627e-07
0.138712
1.96809e-07
0.138712
3.60293e-07
0.138713
2.19037e-07
0.138713
-3.95818e-07
0.138714
-1.10466e-06
0.138715
-1.28047e-06
0.138715
-7.74165e-07
0.138715
-3.11004e-08
0.138714
1.97399e-07
0.138713
-2.63644e-07
0.138713
-8.74399e-07
0.138713
-1.06406e-06
0.138713
-7.7347e-07
0.138713
-3.94152e-07
0.138713
-2.71263e-07
0.138713
-4.29647e-07
0.138714
-6.873e-07
0.138714
-8.60521e-07
0.138714
-8.88451e-07
0.138714
-7.31582e-07
0.138715
-4.01566e-07
0.138715
-5.8261e-08
0.138716
7.28937e-08
0.138716
-1.08276e-07
0.138715
-3.78514e-07
0.138714
-4.57596e-07
0.138714
-2.23061e-07
0.138714
1.72727e-07
0.138714
5.16343e-07
0.138714
6.75571e-07
0.138714
6.61019e-07
0.138714
5.48055e-07
0.138714
3.91467e-07
0.138714
3.00108e-07
0.138714
4.14929e-07
0.138714
8.60535e-07
0.138714
1.45385e-06
0.138713
1.80472e-06
0.138713
1.57492e-06
0.138712
8.43061e-07
0.138711
1.11128e-07
0.138711
1.76058e-07
0.138711
1.31635e-06
0.138711
3.00722e-06
0.13871
4.25122e-06
0.13871
4.2395e-06
0.13871
2.9475e-06
0.138711
1.15727e-06
0.138711
-8.57141e-08
0.138711
-1.56368e-07
0.13871
7.80695e-07
0.138709
1.88946e-06
0.138708
2.44874e-06
0.138707
2.20507e-06
0.138708
1.47005e-06
0.138709
7.27253e-07
0.138709
3.09879e-07
0.138708
2.86631e-07
0.138708
5.32852e-07
0.138707
8.06409e-07
0.138707
8.43338e-07
0.138708
4.61217e-07
0.138708
-3.10653e-07
0.138707
-1.15884e-06
0.138707
-1.54459e-06
0.138707
-1.15589e-06
0.138707
-1.34528e-07
0.138707
9.28962e-07
0.138707
1.41331e-06
0.138707
1.11606e-06
0.138707
3.60026e-07
0.138707
-3.64039e-07
0.138708
-7.09714e-07
0.138708
-8.73715e-07
0.138709
-1.28545e-06
0.138709
-2.1705e-06
0.138709
-3.30501e-06
0.13871
-4.18519e-06
0.138711
-4.33422e-06
0.138711
-3.59079e-06
0.13871
-2.13623e-06
0.13871
-3.97317e-07
0.13871
9.51186e-07
0.13871
1.26555e-06
0.138711
3.43771e-07
0.138712
-1.43009e-06
0.138714
-3.31448e-06
0.138715
-4.53071e-06
0.138715
-4.60064e-06
0.138715
-3.50553e-06
0.138714
-1.66097e-06
0.138714
2.10914e-07
0.138714
1.35083e-06
0.138714
1.30214e-06
0.138715
1.06429e-07
0.138716
-1.81527e-06
0.138716
-3.63856e-06
0.138717
-4.55239e-06
0.138718
-4.06066e-06
0.138718
-2.26282e-06
0.138717
1.42387e-07
0.138716
2.20567e-06
0.138715
3.22402e-06
0.138715
3.04273e-06
0.138715
2.00247e-06
0.138716
6.6055e-07
0.138716
-4.74798e-07
0.138716
-9.88495e-07
0.138715
-5.70257e-07
0.138715
9.022e-07
0.138714
3.2237e-06
0.138713
5.73519e-06
0.138711
7.50039e-06
0.13871
7.82875e-06
0.138709
6.70915e-06
0.138709
4.72512e-06
0.138709
2.59271e-06
0.138709
8.32566e-07
0.138709
-3.04654e-07
0.138709
-7.47664e-07
0.138708
-4.03499e-07
0.138708
6.30209e-07
0.138707
1.9306e-06
0.138707
2.90687e-06
0.138706
2.99984e-06
0.138706
1.98802e-06
0.138706
1.93054e-07
0.138707
-1.75599e-06
0.138708
-3.36951e-06
0.138709
-4.42523e-06
0.138709
-4.90348e-06
0.13871
-4.81023e-06
0.13871
-4.17143e-06
0.138711
-3.12418e-06
0.138711
-1.96491e-06
0.138712
-1.08213e-06
0.138712
-7.4348e-07
0.138713
-1.03373e-06
0.138713
-1.75043e-06
0.138714
-2.57294e-06
0.138714
-3.2074e-06
0.138715
-3.48134e-06
0.138715
-3.37859e-06
0.138716
-2.96468e-06
0.138716
-2.28672e-06
0.138716
-1.32181e-06
0.138716
-2.92588e-08
0.138716
1.44471e-06
0.138715
2.75714e-06
0.138714
3.61674e-06
0.138714
3.91012e-06
0.138713
3.71284e-06
0.138713
3.19555e-06
0.138712
2.50771e-06
0.138712
1.73867e-06
0.138711
9.19158e-07
0.138711
9.81124e-08
0.138711
-6.46566e-07
0.138711
-1.28398e-06
0.138711
-1.82226e-06
0.138712
-2.28667e-06
0.138713
-2.73667e-06
0.138714
-3.23306e-06
0.138715
-3.8032e-06
0.138716
-4.38366e-06
0.138717
-4.89363e-06
0.138718
-5.30109e-06
0.13872
-5.59805e-06
0.138721
-5.7764e-06
0.138722
-5.79385e-06
0.138722
-5.60279e-06
0.138723
-5.17979e-06
0.138724
-4.53839e-06
0.138724
-3.74124e-06
0.138724
-2.88909e-06
0.138724
-2.08883e-06
0.138724
-1.42214e-06
-6.32407e-07
0.138705
-3.89733e-07
0.138704
2.05144e-07
0.1387
2.50623e-06
0.138696
3.61585e-06
0.138698
2.13929e-07
0.1387
-6.1243e-07
0.138697
1.5744e-06
0.138691
3.51583e-06
0.138687
2.16829e-06
0.138688
-5.82728e-07
0.138696
-2.67451e-06
0.138704
-2.37833e-06
0.138709
-6.73092e-07
0.138712
-2.74871e-07
0.138716
-9.56517e-07
0.138718
-7.31452e-07
0.138718
5.80683e-07
0.138716
1.36541e-06
0.138717
9.42879e-07
0.138716
2.53624e-07
0.138714
1.5213e-07
0.138713
3.0652e-07
0.138712
5.23331e-07
0.138709
3.26233e-07
0.138706
-1.40524e-06
0.138706
-2.60929e-06
0.138709
-2.22097e-06
0.138712
-7.35249e-07
0.138714
8.81651e-07
0.138714
1.34852e-06
0.138715
1.15381e-06
0.138715
1.5399e-06
0.138714
1.59432e-06
0.138712
1.84401e-07
0.138713
-1.46738e-06
0.138716
-1.37047e-06
0.138717
1.84692e-07
0.138716
9.67371e-07
0.138715
5.76086e-07
0.138714
5.56553e-07
0.138713
1.14445e-06
0.138711
9.78865e-07
0.13871
5.37089e-08
0.13871
-6.59113e-07
0.13871
-1.38877e-06
0.138712
-2.54442e-06
0.138714
-3.26468e-06
0.138718
-2.31697e-06
0.138721
-3.77665e-07
0.138722
1.21207e-06
0.138721
1.63942e-06
0.138719
1.35709e-06
0.138716
1.36789e-06
0.138712
1.75127e-06
0.138708
1.55909e-06
0.138706
7.17451e-07
0.138707
-3.85606e-07
0.138709
-7.21089e-07
0.138711
-4.26573e-07
0.138712
-6.48011e-07
0.138712
-1.69093e-06
0.138712
-2.25733e-06
0.138713
-1.2507e-06
0.138713
6.32415e-07
0.138713
1.4718e-06
0.138712
5.77046e-07
0.138712
-9.28259e-07
0.138713
-1.45462e-06
0.138714
-7.04855e-07
0.138713
5.09302e-07
0.138713
1.08089e-06
0.138712
8.26626e-07
0.138712
1.36183e-07
0.138713
-4.79449e-07
0.138714
-8.60881e-07
0.138715
-1.07001e-06
0.138715
-1.12309e-06
0.138714
-8.95784e-07
0.138714
-3.43954e-07
0.138713
2.6458e-07
0.138713
4.36543e-07
0.138713
-2.90506e-08
0.138713
-7.36607e-07
0.138713
-1.07162e-06
0.138713
-8.10135e-07
0.138713
-3.34104e-07
0.138713
-2.03614e-07
0.138713
-5.68576e-07
0.138713
-1.09894e-06
0.138714
-1.37216e-06
0.138714
-1.26477e-06
0.138714
-9.40868e-07
0.138715
-5.98372e-07
0.138715
-3.27675e-07
0.138715
-1.25839e-07
0.138715
-5.17543e-09
0.138715
4.89476e-08
0.138714
8.45058e-08
0.138714
2.06334e-07
0.138713
4.0729e-07
0.138713
5.67439e-07
0.138713
5.80911e-07
0.138714
4.42899e-07
0.138714
3.00548e-07
0.138714
2.97654e-07
0.138714
5.09217e-07
0.138713
8.93998e-07
0.138713
1.33997e-06
0.138713
1.69083e-06
0.138713
1.80835e-06
0.138712
1.6335e-06
0.138712
1.26009e-06
0.138711
9.7358e-07