/*--------------------------------*- C++ -*----------------------------------*\
| =========                 |                                                 |
| \\      /  F ield         | OpenFOAM: The Open Source CFD Toolbox           |
|  \\    /   O peration     | Version:  2406                                  |
|   \\  /    A nd           | Website:  www.openfoam.com                      |
|    \\/     M anipulation  |                                                 |
\*---------------------------------------------------------------------------*/
FoamFile
{
    version     2.0;
    format      ascii;
    arch        "LSB;label=32;scalar=64";
    class       volScalarField;
    location    "0.1";
    object      alpha.glycerin;
}
// * * * * * * * * * * * * * * * * * * * * * * * * * * * * * * * * * * * * * //

dimensions      [0 0 0 0 0 0 0];

internalField   nonuniform List<scalar> 
6250
(
2.5643e-62
2.88772e-61
9.96811e-60
1.7498e-58
2.2939e-57
2.35624e-56
1.95444e-55
1.31712e-54
7.2248e-54
3.22773e-53
1.17816e-52
3.5613e-52
9.787e-52
2.91499e-51
9.03892e-51
3.65655e-50
3.61939e-49
5.01351e-48
5.49428e-47
5.45185e-46
3.32488e-45
1.75655e-44
2.34148e-42
3.64166e-40
4.11623e-38
0
-9.33167e-14
-3.5081e-13
-3.46675e-13
0.0364681
0.626951
0.855861
0.965215
0.991415
0.991735
0.991716
0.995665
0.997425
0.998355
0.999017
0.99941
0.999589
0.999684
0.99975
0.999799
0.999817
0.999855
0.999954
0.99999
0.999993
1
1.00003
1.00005
1.00006
1.00005
1.00003
1
0.999939
0.999937
0.999947
0.999988
0.999995
0.999994
0.999982
0.99995
0.999985
1
1.00001
1.00001
1.00001
1.00001
1.00001
1.00001
1
0.99996
0.999932
0.999931
0.999931
0.999931
0.999944
0.999999
1
1
1
1
1
0.999998
0.999961
0.999956
0.999956
0.999956
0.999957
0.999992
0.999999
0.999998
0.999999
0.999985
0.99997
0.99997
0.99997
0.99997
0.999976
0.999991
0.99999
0.999988
0.999989
0.999997
0.999991
0.999943
0.999939
0.999939
0.999939
0.999939
0.999939
0.999939
0.999939
0.999974
0.999967
0.999958
0.999958
0.999958
0.999959
0.99996
0.99996
0.99996
0.99996
0.999961
0.999981
0.999985
0.999983
0.999983
0.999984
0.999984
0.999983
0.999982
0.999982
0.999981
0.999981
0.999982
0.999986
0.99999
0.999992
0.999993
0.999994
0.999993
0.999993
0.999993
0.999993
0.999989
0.999982
0.999982
0.999982
0.999982
0.999982
0.999984
0.999992
0.999995
0.999997
0.999999
1
1
1
1
1
1
1
1
0.999999
0.999998
0.999992
0.999991
0.999992
0.999995
0.999982
0.999976
0.999976
0.999976
0.999989
0.999984
0.999963
0.999963
0.999963
0.999963
0.999963
0.999963
0.999963
0.999967
0.999968
0.999968
0.999984
0.99999
0.999985
0.99999
0.99999
0.999973
0.999973
0.999973
0.999973
0.999985
0.999995
0.999995
0.999995
0.999996
0.999998
0.999999
1
1
1
1
1
1
1
0.999999
0.999999
0.999999
0.999999
0.999993
0.999993
0.999993
0.999993
0.999993
0.999996
1
1
1
1
1
1.00001
1.00001
1.00001
1.00001
1.00001
1.00001
1.00001
1.00001
1.00001
1.00001
1
1
1
1
1
1.00001
1.00001
1.00001
1
1
1
1
1.00001
8.11209e-63
4.43283e-62
1.55018e-60
1.83555e-59
1.95373e-58
1.74255e-57
1.27996e-56
7.72981e-56
3.90348e-55
1.66902e-54
6.09408e-54
1.91465e-53
5.32705e-53
1.45318e-52
3.91972e-52
1.25838e-51
1.04959e-50
1.52058e-49
2.00783e-48
2.16467e-47
1.82341e-46
4.92589e-45
5.43133e-43
6.76746e-40
2.43413e-38
-1.97748e-56
-1.43517e-14
-8.10557e-14
-4.73174e-09
0.00085172
0.00405125
0.000252154
0.000253387
0.00548137
0.0489682
0.242719
0.541328
0.693137
0.738724
0.766281
0.808142
0.873284
0.931401
0.971999
0.995806
0.999756
0.999887
0.999963
0.999987
0.999994
1
1
1
1
1
0.999997
0.999998
1
1
0.999998
0.999999
0.999995
0.999902
0.999891
0.999891
0.999891
0.999916
0.999993
1
1
1.00001
1.00001
1.00001
1.00001
1
0.999999
0.999943
0.999931
0.999962
0.999998
1
1
1.00001
1.00001
1.00002
1.00002
1.00002
1.00002
1.00002
1.00002
1.00001
1.00001
1.00001
1.00001
1.00002
1.00002
1.00003
1.00004
1.00004
1.00005
1.00005
1.00005
1.00005
1.00005
1.00005
1.00005
1.00005
1.00005
1.00005
1.00005
1.00005
1.00005
1.00005
1.00004
1.00004
1.00003
1.00003
1.00003
1.00003
1.00003
1.00003
1.00003
1.00004
1.00004
1.00004
1.00005
1.00005
1.00005
1.00006
1.00006
1.00006
1.00006
1.00006
1.00006
1.00006
1.00006
1.00006
1.00006
1.00006
1.00006
1.00006
1.00006
1.00006
1.00006
1.00006
1.00005
1.00005
1.00005
1.00005
1.00005
1.00005
1.00005
1.00005
1.00005
1.00005
1.00005
1.00005
1.00005
1.00005
1.00005
1.00005
1.00005
1.00004
1.00004
1.00004
1.00004
1.00004
1.00003
1.00003
1.00003
1.00003
1.00003
1.00002
1.00002
1.00002
1.00002
1.00002
1.00003
1.00003
1.00003
1.00003
1.00003
1.00003
1.00003
1.00003
1.00003
1.00003
1.00003
1.00003
1.00002
1.00002
1.00002
1.00001
1.00001
1.00001
1
1
1
1
1
0.999969
0.999953
0.999953
0.999964
0.999961
0.999949
0.999949
0.999948
0.999949
0.999949
0.999949
0.999972
0.999999
1
1
1
1
1
1
1
1
1
1
1
1
1
1
1
1.00001
1.00001
1.00001
1.00001
1.00001
1.00001
1.00001
1.00001
1.00001
1.00001
1.00001
1.00001
1.00001
1
1
0.999989
0.999979
0.999979
0.999979
0.999979
0.999984
0.999999
8.90246e-65
4.67079e-63
7.82518e-62
1.06266e-60
3.90321e-60
1.33624e-59
6.83492e-59
3.28529e-58
1.37578e-57
5.16461e-57
1.75067e-56
5.14754e-56
1.27414e-55
3.01612e-55
8.52004e-55
1.78387e-53
8.46433e-52
2.20531e-50
3.73154e-49
4.41416e-48
6.94505e-47
2.95712e-45
3.9196e-43
8.35946e-41
5.74218e-39
-4.34852e-55
-2.1756e-15
-1.57749e-14
-1.23005e-09
-2.57523e-08
8.58234e-06
0.000435338
0.000307231
2.16648e-06
5.01181e-07
3.35082e-07
3.25491e-07
2.89649e-07
3.25493e-07
4.59756e-07
1.00071e-06
2.16271e-06
0.0137704
0.143328
0.490467
0.748234
0.840592
0.89464
0.951418
0.988713
0.997544
0.998814
0.999252
0.999647
0.999869
0.999949
0.999976
0.999991
0.999996
1
1
1.00001
1.00001
1.00001
1.00001
1
1
0.999937
0.99995
0.999997
1
1
1.00001
1.00001
1.00002
1.00002
1.00002
1.00002
1.00001
1.00001
1.00001
1
0.999953
0.999908
0.999906
0.999905
0.999904
0.999904
0.999906
0.999979
1
1
1
0.99997
0.999954
0.999953
0.999953
0.999952
0.999953
0.999953
0.999972
0.999998
1
1
0.999985
0.999969
0.999968
0.999968
0.999968
0.999968
0.999968
0.999968
0.999983
1
1
0.999998
0.999947
0.999923
0.999922
0.999921
0.999921
0.999921
0.999921
0.999921
0.999921
0.999921
0.999977
0.999982
0.999952
0.999949
0.999949
0.999948
0.999948
0.999948
0.999948
0.999948
0.999948
0.999948
0.99997
0.999996
0.99999
0.999982
0.999982
0.999982
0.999982
0.999982
0.99999
0.999995
0.999994
0.999994
0.999994
0.999994
0.999994
0.999994
0.999994
0.999995
0.999993
0.999991
0.999991
0.999991
0.999991
0.999991
0.999991
0.999996
0.999999
1
1
1
1
1
1
1
1
1
1
1
1
1
0.999998
0.999984
0.999979
0.999978
0.999978
0.999978
0.999979
0.999995
0.999999
0.999997
0.999954
0.999941
0.999941
0.999941
0.999957
0.999947
0.999947
0.999947
0.999947
0.999954
0.999993
0.999999
0.999996
0.999996
0.999972
0.999951
0.999949
0.999949
0.999948
0.999949
0.999949
0.999973
0.999989
0.99999
0.999991
0.99999
0.999989
0.99999
0.999993
0.999997
0.999999
0.999999
1
1
1
1
1
1
0.999999
0.999999
0.999999
1
1
1
1
1.00001
1.00001
1.00001
1.00001
1.00001
1.00001
1.00002
1.00002
1.00002
1.00002
1.00001
1.00001
1.00001
1.00001
1.00001
1.00001
1.00001
-6.48457e-75
9.43377e-67
-1.40402e-65
5.07412e-65
2.39546e-64
5.01409e-63
1.9951e-62
-8.05183e-62
2.30738e-60
1.54864e-59
7.00351e-59
3.55149e-58
3.05732e-57
3.39939e-56
6.80758e-56
7.46796e-55
3.12156e-53
2.0507e-51
5.19625e-50
9.73944e-49
2.0427e-47
1.73937e-46
4.00466e-46
1.21827e-44
2.59694e-42
4.06606e-18
1.99644e-15
2.36317e-15
-2.38931e-10
-8.59101e-10
2.27883e-07
7.92963e-06
1.51494e-05
1.46137e-05
4.81596e-06
5.02619e-07
2.9866e-07
1.40454e-07
4.28508e-06
2.74898e-05
2.7113e-05
4.93133e-06
4.50542e-06
9.37145e-06
1.42639e-05
2.02084e-05
0.00362648
0.029523
0.182384
0.645727
0.926778
0.968438
0.986288
0.996094
0.998731
0.999426
0.999751
0.999882
0.999933
0.999963
0.999978
0.99999
0.999996
0.999999
0.999992
0.999935
0.999931
0.99993
0.99993
0.99993
0.99993
0.999967
0.999997
1
1
1
1.00001
1.00001
1.00001
1.00001
1.00001
1.00001
1.00001
1
0.999969
0.999932
0.999986
0.999998
1
1
1
1
1
0.999996
0.999956
0.999978
0.999998
1
1
1
1.00001
1.00001
1.00001
1.00002
1.00002
1.00002
1.00002
1.00003
1.00003
1.00003
1.00003
1.00003
1.00003
1.00003
1.00003
1.00003
1.00002
1.00002
1.00002
1.00001
1.00001
1
1
0.999999
1
1
1
1
1.00001
1.00001
1.00001
1.00001
1.00002
1.00002
1.00002
1.00002
1.00002
1.00002
1.00002
1.00002
1.00002
1.00002
1.00002
1.00002
1.00002
1.00002
1.00003
1.00003
1.00003
1.00003
1.00003
1.00003
1.00003
1.00003
1.00003
1.00003
1.00003
1.00003
1.00003
1.00003
1.00003
1.00003
1.00003
1.00003
1.00003
1.00003
1.00003
1.00003
1.00003
1.00003
1.00003
1.00002
1.00002
1.00002
1.00002
1.00002
1.00002
1.00002
1.00002
1.00002
1.00002
1.00002
1.00002
1.00002
1.00002
1.00002
1.00002
1.00002
1.00002
1.00002
1.00002
1.00002
1.00001
1.00001
1.00001
1
0.999989
0.999978
0.999994
0.999997
0.999996
0.999996
0.999996
0.999996
0.999974
0.999949
0.999949
0.999951
0.999974
0.999976
0.999966
0.999952
0.999951
0.99995
0.99995
0.99995
0.99995
0.999978
0.999999
0.999999
1
1
1
1
1
1
1
1
1
1
1
1
1
1
1
1
1
1.00001
1.00001
1.00001
1.00001
1.00001
1.00001
1.00001
1
1
1
1
1
1
-1.54755e-74
-2.82819e-69
-5.5929e-68
-3.21844e-66
7.48148e-66
-1.37404e-69
-2.43895e-68
-8.50102e-68
3.37566e-61
9.07573e-60
3.77616e-59
3.14515e-58
3.96046e-57
1.7063e-53
-1.0552e-52
-1.97489e-51
-1.16407e-50
-3.72389e-50
-4.58115e-50
1.96114e-50
3.08505e-48
2.30966e-47
7.91392e-44
7.57099e-44
2.54531e-43
6.06631e-18
3.70905e-15
8.38274e-14
-4.40151e-11
-1.10094e-09
1.31651e-08
2.8356e-08
3.09742e-08
2.71025e-07
6.22352e-07
8.92684e-07
4.06775e-07
4.20021e-08
2.31202e-07
6.82506e-07
1.35711e-06
1.66795e-06
3.69773e-06
1.23561e-05
3.46778e-05
0.000142092
0.000631423
0.00279115
0.00889869
0.0252198
0.0943247
0.386068
0.884414
0.987013
0.995482
0.997781
0.998913
0.999524
0.999781
0.99989
0.999937
0.999969
0.99999
0.999995
0.999983
0.999977
0.99998
0.999981
0.999944
0.99993
0.999934
0.999937
0.999937
0.999962
0.999998
1
1
1
1
1
1
1
1
1
0.999974
0.999927
0.999924
0.999923
0.999922
0.999922
0.999922
0.99997
1
0.999972
0.999951
0.999951
0.999955
0.999955
0.999955
0.999955
0.999955
0.999961
0.999991
1
0.999999
0.999999
0.999999
1
1
1
1
1
1
1
1
0.999999
0.999999
0.999999
0.999999
0.999999
1
0.999999
0.999977
0.999951
0.999949
0.999949
0.999949
0.999948
0.999948
0.999948
0.999948
0.999956
0.999988
0.999998
0.999988
0.999985
0.999985
0.999985
0.999985
0.99999
0.999997
0.999998
0.999998
0.999998
0.999999
0.999999
1
1
1
1
1
1
1
1.00001
1.00001
1.00001
1.00001
1.00001
1.00001
1.00001
1.00001
1.00001
1.00001
1.00001
1.00001
1.00001
1.00001
1.00001
1.00001
1.00001
1.00001
1.00001
1.00001
1.00001
1.00001
1.00001
1.00001
1.00001
1.00001
1
1
1
1
1
0.999998
0.999996
0.999995
0.999995
0.999995
0.999995
0.999996
0.999999
1
1
0.999981
0.999969
0.999968
0.999968
0.999968
0.999973
0.999993
0.999996
0.999996
0.999995
0.999995
0.999993
0.999987
0.999979
0.999975
0.999942
0.999948
0.999952
0.99995
0.99995
0.99995
0.99995
0.999955
0.999988
0.999997
0.999998
0.999999
0.999999
1
1
1
1
1
1
1
1
1
1
1
1
1
1
1.00001
1.00001
1.00001
1.00001
1.00001
1.00001
1.00001
1.00001
1.00001
1.00001
1.00001
1.00001
1.00001
1.00001
-2.3677e-70
0
0
-1.75635e-82
0
-1.23841e-62
-6.51843e-62
-1.8574e-62
2.51076e-59
3.19462e-58
1.78514e-57
7.19957e-57
1.42681e-53
4.09548e-52
-1.60064e-50
-1.92192e-49
-1.07276e-48
-3.92459e-48
-1.0582e-47
-2.20523e-47
-3.42522e-47
-2.99623e-47
1.02123e-42
1.75239e-41
4.065e-42
5.36699e-18
5.66885e-16
8.21499e-14
-5.74957e-12
4.83554e-10
7.30418e-10
1.44026e-09
1.76696e-09
1.74046e-09
2.22032e-09
1.22229e-08
1.76083e-08
2.1867e-08
4.07958e-08
5.91233e-08
1.94065e-07
4.13853e-07
1.64852e-06
5.26031e-06
1.82824e-05
6.14962e-05
0.000191415
0.000650532
0.00218125
0.0076907
0.0248007
0.0734814
0.281728
0.783002
0.975629
0.988414
0.993903
0.99722
0.998733
0.999422
0.999732
0.999875
0.999945
0.999976
0.999974
0.999978
0.999981
0.999983
0.999984
0.999986
0.99999
0.999995
1
1
1
1.00001
1.00001
1.00001
1.00001
1.00001
1.00001
1.00001
1.00001
1
1
0.999961
0.999927
0.999955
0.99999
0.999993
0.999995
0.999995
0.999997
0.999963
0.999947
0.999945
0.999977
0.999996
0.999998
0.999999
1
1
1
1
1.00001
1.00001
1.00001
1.00001
1.00001
1.00001
1.00001
1.00001
1.00001
1.00001
1.00001
1.00001
1.00001
1.00001
1.00001
1.00001
1.00001
1
1
0.999985
0.999951
0.99995
0.999949
0.999963
0.999994
0.999998
0.999999
1
1
1
1
1
1
1
1
1
1.00001
1.00001
1.00001
1.00001
1.00001
1.00001
1.00001
1.00001
1.00001
1.00001
1.00001
1.00001
1.00002
1.00002
1.00002
1.00002
1.00002
1.00002
1.00002
1.00002
1.00002
1.00002
1.00002
1.00002
1.00002
1.00002
1.00002
1.00002
1.00002
1.00002
1.00002
1.00002
1.00002
1.00002
1.00002
1.00002
1.00002
1.00001
1.00001
1.00001
1.00001
1.00001
1.00001
1.00001
1.00001
1.00001
1.00001
1.00001
1.00001
1.00001
1.00001
1.00001
1.00001
1
1
1
1
1
0.999984
0.999975
0.999979
0.999979
0.999991
0.999995
0.99997
0.999962
0.999962
0.999962
0.999977
0.999982
0.999969
0.999946
0.999951
0.99995
0.99995
0.99995
0.99995
0.99995
0.999957
0.999988
0.999998
0.999999
0.999999
1
1
1
1
1
1
1
1
1
1
1
1
1
1
1
1
1
1.00001
1.00001
1.00001
1.00001
1
1
1
1.00001
1
1.00001
-7.86564e-72
-4.20052e-72
-2.79612e-65
-4.78131e-64
-3.63666e-63
-2.76598e-62
-2.07947e-61
-1.74521e-61
2.72548e-58
-1.25748e-56
-1.38089e-55
-7.11499e-55
-4.32598e-56
1.17925e-52
-6.48222e-49
-6.94064e-48
-3.85405e-47
-1.47639e-46
-4.21372e-46
-9.24508e-46
-1.56602e-45
-1.60261e-45
1.77725e-43
1.35324e-41
1.43018e-42
2.0416e-18
1.86301e-16
1.6202e-14
-4.65307e-13
9.15326e-12
1.73815e-11
5.7903e-11
9.63403e-11
1.6645e-10
4.36835e-10
9.60886e-10
3.17241e-09
5.9069e-09
1.57409e-08
3.25135e-08
1.25105e-07
3.01491e-07
1.18396e-06
3.0181e-06
1.15162e-05
3.20231e-05
0.000111646
0.000357221
0.00114407
0.00369192
0.0116592
0.0380236
0.120045
0.454682
0.914288
0.963494
0.981457
0.991084
0.995852
0.998065
0.999082
0.999565
0.999793
0.999898
0.999945
0.999966
0.999975
0.999985
0.99999
0.999992
0.999993
0.999995
0.999998
1
1
1
1
1
1
1
1
1
1
0.999983
0.999959
0.999957
0.999964
0.999988
0.999991
0.999993
0.999994
0.999995
0.999994
0.999957
0.999944
0.999944
0.999943
0.999943
0.999943
0.999943
0.999943
0.999954
0.999991
1
1
1
1
1
1
1
1.00001
1.00001
1.00001
1.00001
1.00001
1.00001
1.00001
1.00001
1.00001
1.00001
1
1
1
0.999998
0.999973
0.999953
0.999951
0.999952
0.999951
0.999951
0.999951
0.99996
0.99999
1
1
1
1
1
1
1
1
1
1
1
1
1
1
1
1.00001
1.00001
1.00001
1.00001
1.00001
1.00001
1.00001
1.00001
1.00001
1.00002
1.00002
1.00002
1.00002
1.00002
1.00002
1.00002
1.00002
1.00002
1.00002
1.00002
1.00002
1.00002
1.00002
1.00002
1.00002
1.00002
1.00002
1.00002
1.00001
1.00001
1.00001
1.00001
1.00001
1.00001
1.00001
1
1
1
1
1
1
1
1
1
1
1
1
1
1
0.999992
0.999981
0.999979
0.999983
0.99999
0.999991
0.999992
0.99998
0.999966
0.999982
0.999982
0.999982
0.999982
0.999978
0.99995
0.999951
0.99995
0.99995
0.99995
0.99995
0.999949
0.999956
0.999988
0.999997
0.999998
0.999999
0.999999
1
1
1
1
1
1
1
1
1
1
1
1
1
1
1.00001
1.00001
1.00001
1.00001
1.00001
1.00001
1.00001
1.00001
1.00001
1.00001
1.00001
1.00001
-1.037e-73
-2.91495e-67
-2.51996e-64
-3.01972e-63
-1.97216e-62
-1.7197e-60
-2.50886e-59
-1.66629e-58
-6.36647e-58
-2.51947e-55
-2.40268e-54
-1.17968e-53
-3.9373e-53
-8.43388e-53
-4.28267e-48
-3.82056e-47
-1.78879e-46
-5.84464e-46
-1.4788e-45
-3.01663e-45
-5.02277e-45
-7.28912e-47
4.91093e-44
7.17085e-43
9.46992e-43
3.46766e-18
1.42136e-16
3.10449e-15
-1.46923e-14
2.85678e-13
9.6153e-13
1.03497e-11
3.71298e-11
1.13276e-10
3.14615e-10
8.21219e-10
1.96807e-09
4.7372e-09
1.48009e-08
3.23934e-08
1.28451e-07
3.02757e-07
1.17099e-06
2.80533e-06
1.04238e-05
2.90575e-05
8.6142e-05
0.000291402
0.000879099
0.00304464
0.00906168
0.0271256
0.0796348
0.321396
0.826567
0.944839
0.971181
0.985001
0.992218
0.995975
0.997922
0.998954
0.999473
0.999733
0.999861
0.999924
0.999952
0.999957
0.999947
0.999947
0.999962
0.999994
0.999995
0.999963
0.99996
0.99996
0.99996
0.999972
0.999999
1
1
1
0.999988
0.999962
0.999961
0.999959
0.999966
0.999995
0.999969
0.999951
0.999949
0.999947
0.999947
0.999947
0.999982
0.999996
0.999998
0.999999
1
1
1
1
1
1
1
1.00001
1.00001
1.00001
1.00001
1.00001
1.00001
1.00001
1.00001
1.00001
1.00001
1.00001
1.00001
1.00001
1.00001
1.00001
1.00001
1
1
1
0.99998
0.999955
0.999953
0.999952
0.999951
0.999972
0.999996
0.999998
0.999999
0.999999
1
1
1
1
1
1
1
1
1
1
1
1
1
1
1.00001
1.00001
1.00001
1.00001
1.00001
1.00001
1.00001
1.00002
1.00002
1.00002
1.00002
1.00002
1.00002
1.00002
1.00002
1.00002
1.00002
1.00002
1.00002
1.00002
1.00002
1.00002
1.00002
1.00002
1.00002
1.00002
1.00002
1.00002
1.00002
1.00002
1.00002
1.00001
1.00001
1.00001
1.00001
1.00001
1.00001
1.00001
1.00001
1.00001
1.00001
1.00001
1.00001
1.00001
1
1
1
1
1
1
0.999999
0.999989
0.999979
0.999978
0.999978
0.999978
0.999981
0.999982
0.999982
0.999982
0.999982
0.999982
0.999982
0.999966
0.999941
0.99995
0.99995
0.999949
0.999949
0.999949
0.999949
0.999969
0.999995
0.999997
0.999999
0.999999
0.999999
1
1
1
1
1
1
1
1
1
1
1
1
1
1
1.00001
1.00001
1.00001
1.00001
1.00001
1.00001
1
1
1.00001
1.00001
1.00001
-3.99559e-71
-1.39166e-66
-6.67687e-64
-7.72546e-63
-3.45267e-61
-1.26748e-58
-1.28213e-57
-6.60003e-57
-2.29954e-56
-1.30969e-55
-8.49977e-55
-4.0303e-54
4.24078e-54
1.25378e-51
-9.26661e-49
-8.29943e-48
-3.94869e-47
-1.27604e-46
-2.86157e-46
-1.90612e-46
2.95439e-45
4.44037e-44
3.21431e-43
3.56308e-41
1.43018e-42
3.0357e-18
1.34471e-16
1.60557e-15
9.16021e-15
1.44895e-13
6.0039e-13
3.34893e-12
1.43125e-11
5.06476e-11
1.58327e-10
5.32031e-10
1.80679e-09
4.97414e-09
1.57888e-08
3.4473e-08
1.36243e-07
3.15068e-07
1.21447e-06
2.80365e-06
1.04581e-05
2.75015e-05
8.4515e-05
0.000264172
0.000796337
0.00278161
0.00858854
0.0256426
0.0716699
0.273251
0.763473
0.937693
0.967138
0.982739
0.990966
0.995287
0.997548
0.998728
0.99934
0.999659
0.99982
0.999901
0.999945
0.999969
0.999981
0.999987
0.999989
0.999993
0.999997
0.999999
1
1
1
1
1
1
1
1
1
1
1
1
1
1
0.999999
0.999999
0.999997
0.999991
0.999951
0.99994
0.99994
0.999939
0.999939
0.999938
0.999938
0.999938
0.999943
0.999984
1
1
1
1
1
1
1
1
1
1.00001
1.00001
1.00001
1.00001
1.00001
1.00001
1.00001
1
1
1
1
0.999999
0.999993
0.99996
0.999954
0.999952
0.999951
0.999951
0.999951
0.999951
0.999958
0.999989
0.999999
0.999999
1
1
1
0.999999
0.999999
0.999999
0.999999
0.999999
1
1
1
1
1
1
1.00001
1.00001
1.00001
1.00001
1.00001
1.00001
1.00001
1.00002
1.00002
1.00002
1.00002
1.00002
1.00002
1.00002
1.00002
1.00002
1.00002
1.00002
1.00002
1.00002
1.00002
1.00002
1.00002
1.00002
1.00002
1.00001
1.00001
1.00001
1.00001
1.00001
1.00001
1.00001
1.00001
1.00001
1
1
1
1
1
1
1
1
1
1
1
1
1
1
0.999996
0.999981
0.999977
0.999979
0.999978
0.999978
0.999978
0.999978
0.999979
0.999982
0.999982
0.999982
0.999982
0.999982
0.999955
0.999948
0.99995
0.99995
0.999949
0.999949
0.999949
0.999949
0.999965
0.999995
0.999997
0.999999
0.999999
1
1
1
1
1
1
1
1
1
1
1
1
1
1
1
1
1.00001
1.00001
1.00001
1.00001
1
1
1
1.00001
1.00001
1.00001
-1.42087e-68
-6.4168e-64
-1.62538e-61
-1.85717e-60
-1.1168e-59
-1.09561e-58
-8.85644e-58
-1.30495e-57
5.37148e-56
5.94766e-55
4.95942e-54
6.65345e-53
6.73128e-51
1.47412e-48
2.679e-47
2.86396e-46
1.90182e-45
1.14955e-44
5.92395e-44
2.71675e-43
1.38819e-42
7.88823e-42
3.92578e-41
3.89296e-39
9.81936e-42
2.87839e-18
1.3182e-16
1.53547e-15
1.65654e-14
1.16216e-13
6.41528e-13
3.17419e-12
1.39125e-11
5.09811e-11
1.54192e-10
5.46917e-10
1.90604e-09
5.26776e-09
1.67504e-08
3.64037e-08
1.43647e-07
3.29595e-07
1.26759e-06
2.87679e-06
1.07783e-05
2.76431e-05
8.6555e-05
0.000260737
0.000793367
0.00269516
0.00856047
0.0255354
0.0709079
0.25856
0.737124
0.934541
0.965246
0.981624
0.990322
0.994921
0.99734
0.998613
0.999279
0.999626
0.999808
0.999904
0.999948
0.999967
0.999981
0.999987
0.99999
0.999992
0.999995
0.999969
0.999952
0.999956
0.999984
0.999999
0.999999
1
1
1
1
0.99999
0.999948
0.999945
0.999943
0.999943
0.999943
0.999943
0.999946
0.999978
0.99998
0.999963
0.999942
0.99994
0.999942
0.999979
0.999994
0.999997
0.999998
1
1
1
1
1
1
1.00001
1.00001
1.00001
1.00001
1.00001
1.00001
1.00001
1.00001
1.00001
1.00001
1.00001
1.00001
1.00001
1.00001
1
1
0.999998
0.999973
0.999955
0.999953
0.999952
0.999951
0.999966
0.999995
0.999997
0.999998
0.999999
0.999999
1
1
1
1
0.999999
0.999999
0.999999
1
1
1
1
1
1
1.00001
1.00001
1.00001
1.00001
1.00001
1.00001
1.00001
1.00002
1.00002
1.00002
1.00002
1.00002
1.00002
1.00002
1.00002
1.00002
1.00002
1.00002
1.00002
1.00002
1.00002
1.00002
1.00002
1.00002
1.00002
1.00002
1.00002
1.00002
1.00002
1.00002
1.00002
1.00001
1.00001
1.00001
1.00001
1.00001
1.00001
1.00001
1.00001
1.00001
1.00001
1.00001
1.00001
1.00001
1
1
1
1
1
1
1
0.999999
0.999992
0.999978
0.999978
0.999982
0.999982
0.999982
0.999982
0.999982
0.999982
0.999982
0.99998
0.999938
0.999945
0.99995
0.999949
0.999949
0.999949
0.999949
0.999949
0.999975
0.999995
0.999998
0.999999
0.999999
1
1
1
1
1
1
1
1
1
1
1
1
1
1
1
1.00001
1.00001
1.00001
1.00001
1.00001
1.00001
1
1
1.00001
1.00001
1.00001
-6.92156e-67
-6.88951e-63
-7.93166e-61
-8.90067e-60
-5.29798e-59
-2.26143e-58
-3.38006e-58
7.46042e-56
2.45354e-54
2.9445e-53
2.13018e-52
6.82406e-51
1.09157e-48
4.67028e-47
1.0342e-45
1.48463e-44
1.45341e-43
1.35391e-42
2.60429e-41
4.43589e-40
4.1999e-39
3.88047e-38
2.1932e-37
3.24666e-35
9.13294e-40
2.81149e-18
1.30414e-16
1.51307e-15
1.6267e-14
1.11834e-13
6.46095e-13
3.22949e-12
1.42708e-11
5.22146e-11
1.58669e-10
5.69085e-10
1.98811e-09
5.48392e-09
1.74413e-08
3.78075e-08
1.49046e-07
3.37693e-07
1.30142e-06
2.90597e-06
1.09839e-05
2.77688e-05
8.92125e-05
0.0002599
0.000810819
0.00268706
0.00865974
0.0255781
0.0712584
0.254589
0.728904
0.933322
0.964466
0.981151
0.990035
0.994749
0.99725
0.998562
0.999259
0.999624
0.999802
0.99988
0.999932
0.999956
0.999969
0.999981
0.999958
0.999952
0.999952
0.999952
0.999951
0.999951
0.999951
0.999951
0.999951
0.999984
1
1
1
1
1
1
1
1
1
0.999996
0.999965
0.999964
0.999982
0.999983
0.999983
0.999981
0.999958
0.999962
0.999966
0.999966
0.999986
0.999999
1
1
1
1
1
1
1.00001
1.00001
1.00001
1.00001
1.00001
1.00001
1.00001
1.00001
1.00001
1.00001
1.00001
1.00001
1
1
1
0.999996
0.999968
0.999955
0.999954
0.999953
0.999953
0.999954
0.999983
0.999996
0.999998
0.999999
0.999999
1
1
1
1
1
1
1
1
1
1
1
1
1
1.00001
1.00001
1.00001
1.00001
1.00001
1.00001
1.00001
1.00002
1.00002
1.00002
1.00002
1.00002
1.00002
1.00002
1.00002
1.00002
1.00002
1.00002
1.00002
1.00002
1.00002
1.00002
1.00002
1.00002
1.00002
1.00002
1.00002
1.00002
1.00002
1.00001
1.00001
1.00001
1.00001
1.00001
1.00001
1.00001
1.00001
1.00001
1.00001
1.00001
1.00001
1.00001
1
1
1
1
1
1
1
1
0.999999
0.999998
0.999992
0.999978
0.999978
0.999975
0.999982
0.999982
0.999982
0.999982
0.999982
0.999982
0.99998
0.999941
0.999946
0.99995
0.999949
0.999949
0.999949
0.999949
0.999949
0.999977
0.999995
0.999998
0.999999
0.999999
1
1
1
1
1
1
1
1
1
1
1
1
1
1
1
1.00001
1.00001
1.00001
1.00001
1.00001
1.00001
1
1
1.00001
1.00001
1.00001
-1.27312e-64
-5.2582e-62
-7.44838e-60
-8.1869e-59
-4.7684e-58
-5.67353e-55
-5.37874e-54
-4.46826e-54
1.47089e-52
1.80441e-51
1.22184e-50
8.05679e-49
5.28725e-47
1.12299e-45
3.392e-44
4.7427e-43
4.81903e-42
5.04557e-41
7.79258e-40
2.19694e-38
3.32039e-37
2.43544e-36
2.49624e-35
1.74987e-34
7.49459e-36
2.78727e-18
1.29115e-16
1.49666e-15
1.6156e-14
1.09794e-13
6.43387e-13
3.23386e-12
1.43916e-11
5.24062e-11
1.60985e-10
5.80237e-10
2.0291e-09
5.59109e-09
1.77806e-08
3.84424e-08
1.51446e-07
3.41014e-07
1.31449e-06
2.91643e-06
1.10479e-05
2.77859e-05
8.98179e-05
0.000259425
0.000813483
0.00267756
0.00867991
0.0256133
0.071389
0.252012
0.723432
0.932621
0.964031
0.980876
0.989865
0.994649
0.997182
0.998517
0.999214
0.99957
0.999763
0.999867
0.999919
0.999944
0.999957
0.999964
0.999976
0.99999
0.999994
0.999996
0.999998
1
1
1
1
1
1
1
1
1
0.999997
0.999962
0.999926
0.999922
0.999921
0.99992
0.99992
0.99992
0.999929
0.999985
0.999985
0.999977
0.999962
0.999966
0.999966
0.999967
0.999967
0.999975
0.999996
0.999999
1
1
1
1
1
1
1.00001
1.00001
1.00001
1.00001
1.00001
1.00001
1
1
1
1
1
1
1
0.999998
0.999978
0.999957
0.999955
0.999954
0.999954
0.999954
0.999959
0.999989
0.999997
0.999998
0.999999
0.999999
0.999998
0.999997
0.999997
0.999997
0.999997
0.999997
0.999998
0.999999
1
1
1
1
1
1.00001
1.00001
1.00001
1.00001
1.00001
1.00001
1.00002
1.00002
1.00002
1.00002
1.00002
1.00002
1.00002
1.00002
1.00002
1.00002
1.00002
1.00002
1.00002
1.00002
1.00002
1.00002
1.00002
1.00002
1.00002
1.00002
1.00002
1.00002
1.00001
1.00001
1.00001
1.00001
1.00001
1.00001
1.00001
1.00001
1.00001
1.00001
1.00001
1.00001
1
1
1
1
1
1
1
1
1
0.999999
0.999999
0.999999
1
0.999992
0.999967
0.999965
0.999964
0.999963
0.999963
0.99997
0.999982
0.999978
0.999964
0.999942
0.999949
0.999949
0.999948
0.999948
0.999948
0.999949
0.999979
0.999995
0.999998
0.999999
0.999999
0.999999
1
1
1
1
1
1
1
1
1
1
1
1
1
1
1
1.00001
1.00001
1.00001
1.00001
1
1
1
1.00001
1.00001
1.00001
-9.24819e-66
-2.20716e-61
-9.25137e-60
-1.24083e-58
0
0
5.85561e-54
9.21089e-52
1.28149e-50
1.63038e-49
8.65466e-49
1.9345e-46
3.1564e-45
4.67951e-44
7.51319e-43
9.17261e-42
1.12834e-40
2.41629e-39
1.62281e-37
2.25977e-36
2.78553e-36
2.17621e-36
1.72391e-35
1.0412e-34
5.20236e-35
2.73879e-18
1.25553e-16
1.46019e-15
1.58158e-14
1.08069e-13
6.34202e-13
3.19781e-12
1.42634e-11
5.20103e-11
1.604e-10
5.79598e-10
2.02903e-09
5.5901e-09
1.77683e-08
3.82654e-08
1.50645e-07
3.39248e-07
1.30353e-06
2.90101e-06
1.09141e-05
2.7475e-05
8.7468e-05
0.000256414
0.000787807
0.0026214
0.00854425
0.025641
0.0710727
0.246377
0.711415
0.931605
0.963454
0.980549
0.989698
0.99456
0.997132
0.998497
0.999214
0.999589
0.999792
0.999883
0.99992
0.999945
0.999959
0.999965
0.999972
0.999977
0.999965
0.999965
0.999965
0.999966
0.999965
0.999965
0.999965
0.999977
0.999999
1
1
1
1
1
1
0.999975
0.999935
0.999983
0.999984
0.999984
0.999985
0.999985
0.999985
0.999985
0.999985
0.999968
0.999967
0.999969
0.999991
0.999998
0.999999
1
1
1
1
1.00001
1.00001
1.00001
1.00001
1.00001
1.00001
1.00001
1.00001
1.00001
1.00001
1
1
1
1
1
1
1
0.999985
0.999958
0.999956
0.999955
0.999954
0.999955
0.999957
0.999987
0.999996
0.999997
0.999998
0.999999
0.999998
0.999997
0.999997
0.999997
0.999997
0.999999
0.999999
1
1
1
1
1
1.00001
1.00001
1.00001
1.00001
1.00001
1.00001
1.00001
1.00002
1.00002
1.00002
1.00002
1.00002
1.00002
1.00002
1.00002
1.00002
1.00002
1.00002
1.00002
1.00002
1.00002
1.00002
1.00002
1.00002
1.00002
1.00002
1.00002
1.00002
1.00002
1.00001
1.00001
1.00001
1.00001
1.00001
1.00001
1.00001
1.00001
1.00001
1.00001
1.00001
1.00001
1.00001
1
1
1
1
1
1
1
1
1
1
1
1
0.999995
0.999967
0.999965
0.999964
0.999963
0.999963
0.999963
0.999966
0.999973
0.99997
0.999952
0.999948
0.999948
0.999948
0.999948
0.999948
0.999948
0.999979
0.999995
0.999997
0.999998
0.999999
0.999999
1
1
1
1
1
1
1
1
1
1
1
1
1
1
1.00001
1.00001
1.00001
1.00001
1.00001
1.00001
1
1
1.00001
1.00001
1.00001
-9.60973e-70
-4.44333e-64
-1.19979e-73
-7.45807e-71
1.06988e-57
3.60629e-57
1.00974e-51
2.73116e-50
7.44887e-49
1.64013e-48
6.08578e-48
2.63926e-44
3.65475e-43
4.13267e-42
7.60068e-41
1.26917e-39
2.38443e-38
3.55321e-37
1.3832e-35
6.0167e-36
1.42801e-36
3.79781e-35
8.43233e-34
9.85678e-33
6.17901e-31
2.72299e-18
1.20741e-16
1.40942e-15
1.5259e-14
1.05855e-13
6.16284e-13
3.10834e-12
1.38521e-11
5.08006e-11
1.56648e-10
5.67407e-10
1.99108e-09
5.49553e-09
1.74617e-08
3.74414e-08
1.47293e-07
3.31044e-07
1.26737e-06
2.8356e-06
1.0529e-05
2.66567e-05
8.27486e-05
0.000248862
0.000738068
0.00251042
0.00800481
0.0257274
0.0701139
0.23745
0.691477
0.930199
0.962722
0.98017
0.989491
0.994442
0.997068
0.998452
0.999183
0.999557
0.999745
0.999852
0.999908
0.999934
0.999948
0.99995
0.999944
0.999951
0.999987
0.999993
0.999996
0.999999
1
1
1
1
1
1
1
1
1
0.999993
0.999946
0.999933
0.999931
0.999931
0.999931
0.999931
0.999963
0.999985
0.999985
0.999985
0.999984
0.999977
0.999968
0.99997
0.999973
0.999989
0.999998
0.999999
1
1
1
1
1
1.00001
1.00001
1.00001
1.00001
1.00001
1.00001
1.00001
1
1
1
1
1
1
1
1
0.999997
0.999975
0.999958
0.999956
0.999955
0.999955
0.999957
0.999987
0.999996
0.999998
0.999999
0.999999
0.999999
0.999999
0.999999
0.999999
0.999999
1
1
1
1
1
1
1.00001
1.00001
1.00001
1.00001
1.00001
1.00001
1.00001
1.00002
1.00002
1.00002
1.00002
1.00002
1.00002
1.00002
1.00002
1.00002
1.00002
1.00002
1.00002
1.00002
1.00002
1.00002
1.00002
1.00002
1.00002
1.00002
1.00002
1.00002
1.00002
1.00002
1.00002
1.00001
1.00001
1.00001
1.00001
1.00001
1.00001
1.00001
1.00001
1.00001
1.00001
1.00001
1.00001
1
1
1
1
1
1
1
1
1
1
1
1
1
0.999987
0.999966
0.999965
0.999964
0.999965
0.99998
0.99998
0.999954
0.999948
0.999948
0.999948
0.999948
0.999948
0.999948
0.999943
0.999958
0.999986
0.999996
0.999998
0.999999
0.999999
0.999999
1
1
1
1
1
1
1
1
1
1
1
1
1
1
1.00001
1.00001
1.00001
1.00001
1.00001
1
1
1
1.00001
1.00001
1.00001
-2.18201e-67
3.1966e-61
5.79132e-58
6.32267e-55
1.32717e-53
1.21327e-50
1.90004e-48
4.24987e-48
6.51149e-48
8.51103e-47
9.38066e-46
7.41306e-42
7.5295e-41
6.83436e-40
1.14691e-38
1.67939e-37
1.66763e-36
2.44286e-37
7.09667e-36
-7.65185e-37
-3.15984e-34
1.81922e-32
3.27113e-31
3.06514e-30
1.71862e-28
2.77265e-18
1.16295e-16
1.35896e-15
1.46074e-14
1.03478e-13
5.91755e-13
2.981e-12
1.32229e-11
4.8629e-11
1.50079e-10
5.46276e-10
1.92566e-09
5.34055e-09
1.69792e-08
3.62911e-08
1.42557e-07
3.18167e-07
1.21289e-06
2.73459e-06
9.96084e-06
2.54975e-05
7.79909e-05
0.000234464
0.0006961
0.00232789
0.00745867
0.0249885
0.0698838
0.22646
0.667699
0.928791
0.962051
0.979846
0.989335
0.994385
0.997047
0.998447
0.999193
0.999575
0.999756
0.999864
0.999922
0.999948
0.999966
0.999976
0.999938
0.99994
0.999948
0.999964
0.999949
0.999949
0.999949
0.999949
0.999949
0.999981
1
1
1
1
1
1
0.999996
0.999952
0.999933
0.999931
0.999942
0.999979
0.999981
0.999983
0.999984
0.999979
0.999973
0.999972
0.999971
0.999972
0.999976
0.999994
0.999999
1
1
1
1
1
1.00001
1.00001
1.00001
1.00001
1.00001
1.00001
1.00001
1
1
1
1
1
1
1
1
1
0.999999
0.999994
0.999961
0.999957
0.999956
0.999955
0.999956
0.999957
0.999977
0.999996
0.999998
0.999999
0.999999
0.999999
0.999999
0.999999
0.999999
1
1
1
1
1
1
1
1.00001
1.00001
1.00001
1.00001
1.00001
1.00001
1.00001
1.00002
1.00002
1.00002
1.00002
1.00002
1.00002
1.00002
1.00002
1.00002
1.00002
1.00002
1.00002
1.00002
1.00002