/*--------------------------------*- C++ -*----------------------------------*\
| =========                 |                                                 |
| \\      /  F ield         | OpenFOAM: The Open Source CFD Toolbox           |
|  \\    /   O peration     | Version:  2406                                  |
|   \\  /    A nd           | Website:  www.openfoam.com                      |
|    \\/     M anipulation  |                                                 |
\*---------------------------------------------------------------------------*/
FoamFile
{
    version     2.0;
    format      ascii;
    arch        "LSB;label=32;scalar=64";
    class       surfaceScalarField;
    location    "0.1";
    object      alphaPhi0.glycerin;
}
// * * * * * * * * * * * * * * * * * * * * * * * * * * * * * * * * * * * * * //

dimensions      [0 3 -1 0 0 0 0];

oriented        oriented;

internalField   nonuniform List<scalar> 
12225
(
6.2471e-69
5.7351e-71
8.33515e-68
2.86385e-69
2.49018e-66
8.93206e-68
4.19249e-65
1.30256e-66
5.19264e-64
1.56179e-65
4.99864e-63
1.56494e-64
3.86182e-62
1.20501e-63
2.41422e-61
7.14007e-63
1.2233e-60
3.39623e-62
5.02288e-60
1.32849e-61
1.67824e-59
4.29563e-61
4.69878e-59
1.16649e-60
1.24339e-58
2.95248e-60
3.64643e-58
8.34824e-60
1.13323e-57
2.52955e-59
4.87402e-57
1.03356e-58
5.10269e-56
1.06106e-57
6.82364e-55
1.5448e-56
7.03188e-54
1.81256e-55
6.36259e-53
1.96111e-54
3.48341e-52
1.32462e-53
1.8187e-51
7.95925e-53
2.4548e-49
1.23259e-50
1.59041e-47
2.07461e-48
1.52597e-45
2.73459e-46
1.48381e-45
4.21578e-47
-1.86703e-21
-8.60523e-22
-3.4956e-21
-3.51739e-21
-1.07453e-21
-2.37494e-21
1.59827e-09
-6.89244e-12
5.92501e-09
-1.05972e-10
7.76689e-09
-4.35577e-11
9.09403e-09
-6.23232e-13
9.17498e-09
-1.80835e-11
8.93484e-09
2.46182e-10
9.52677e-09
-3.86101e-10
1.09643e-08
-1.27102e-09
1.27962e-08
-1.72094e-09
1.44634e-08
-1.57709e-09
1.58171e-08
-1.289e-09
1.68387e-08
-9.82666e-10
1.75822e-08
-7.16876e-10
1.83384e-08
-7.33485e-10
1.9406e-08
-1.05359e-09
2.07957e-08
-1.3873e-09
2.22682e-08
-1.47265e-09
2.35843e-08
-1.32202e-09
2.47423e-08
-1.16008e-09
2.58633e-08
-1.1212e-09
2.70202e-08
-1.15742e-09
2.81934e-08
-1.1724e-09
2.93314e-08
-1.13727e-09
3.04012e-08
-1.07068e-09
3.13852e-08
-9.86158e-10
3.22728e-08
-8.90535e-10
3.30596e-08
-7.89769e-10
3.37465e-08
-6.91053e-10
3.43447e-08
-5.98736e-10
3.48604e-08
-5.15707e-10
3.53054e-08
-4.42391e-10
3.56856e-08
-3.79043e-10
3.60107e-08
-3.24611e-10
3.62892e-08
-2.77968e-10
3.6526e-08
-2.37881e-10
3.673e-08
-2.03645e-10
3.69055e-08
-1.74639e-10
3.70553e-08
-1.49941e-10
3.71843e-08
-1.28949e-10
3.72954e-08
-1.11012e-10
3.7391e-08
-9.56716e-11
3.74735e-08
-8.25764e-11
3.75446e-08
-7.13829e-11
3.7606e-08
-6.18086e-11
3.76589e-08
-5.36388e-11
3.77021e-08
-4.65397e-11
3.7742e-08
-4.03612e-11
3.77767e-08
-3.49808e-11
3.78067e-08
-3.02118e-11
3.78325e-08
-2.60689e-11
3.7857e-08
-2.25751e-11
3.78768e-08
-1.96282e-11
3.7894e-08
-1.71164e-11
3.79088e-08
-1.48873e-11
3.79217e-08
-1.2957e-11
3.7933e-08
-1.13037e-11
3.79428e-08
-9.89006e-12
3.79504e-08
-8.69431e-12
3.79573e-08
-7.56605e-12
3.79639e-08
-6.54014e-12
3.79697e-08
-5.70884e-12
3.79747e-08
-4.96036e-12
3.79801e-08
-4.24464e-12
3.79846e-08
-3.65552e-12
3.79877e-08
-3.18503e-12
3.79905e-08
-2.79974e-12
3.7993e-08
-2.52797e-12
3.79946e-08
-2.30762e-12
3.79967e-08
-2.04461e-12
3.79985e-08
-1.75703e-12
3.80001e-08
-1.54432e-12
3.80014e-08
-1.28143e-12
3.80033e-08
-1.13428e-12
3.80044e-08
-9.75391e-13
3.80053e-08
-9.14522e-13
3.80061e-08
-7.86999e-13
3.80069e-08
-6.53193e-13
3.80076e-08
-5.67915e-13
3.80071e-08
-7.00371e-13
3.80069e-08
-6.16837e-13
3.80074e-08
-6.0946e-13
3.80078e-08
-4.81852e-13
3.80081e-08
-3.88103e-13
3.80083e-08
-3.86909e-13
3.80086e-08
-3.69176e-13
3.80089e-08
-3.15131e-13
3.80101e-08
-8.3335e-14
3.80105e-08
-4.59933e-14
3.80098e-08
4.31491e-15
3.80099e-08
-3.45344e-14
3.801e-08
-2.25604e-14
3.801e-08
-1.48137e-14
3.80102e-08
-2.40248e-14
3.80103e-08
-2.76969e-14
3.80103e-08
-1.21855e-14
3.80103e-08
-5.41386e-15
3.80104e-08
-8.84844e-14
3.8011e-08
-4.9902e-14
3.80115e-08
1.60986e-14
3.80113e-08
-2.37587e-14
3.80113e-08
-6.20627e-14
3.80113e-08
-7.22921e-14
3.80114e-08
-6.94701e-14
3.80115e-08
-6.52461e-14
3.80116e-08
-6.87905e-14
3.80117e-08
-6.13565e-14
3.80118e-08
-2.71311e-14
3.80119e-08
1.92238e-14
3.80119e-08
5.04662e-14
3.80122e-08
1.71134e-15
3.80125e-08
6.72234e-14
3.80128e-08
-2.86311e-14
3.80131e-08
1.12536e-14
3.80133e-08
-1.22069e-14
3.80136e-08
-3.81616e-14
3.80139e-08
-5.97459e-14
3.80142e-08
-8.4164e-14
3.80146e-08
-1.04547e-13
3.80149e-08
-1.33103e-13
3.80151e-08
-1.59379e-13
3.80155e-08
-1.5791e-13
3.8016e-08
-1.44163e-13
3.80164e-08
-1.36046e-13
3.80169e-08
-1.38987e-13
3.80174e-08
-1.38414e-13
3.80181e-08
-1.16923e-13
3.80187e-08
-8.46623e-14
3.80192e-08
-1.34582e-13
3.80197e-08
-1.07638e-13
3.80201e-08
-9.36563e-14
3.80205e-08
-9.0135e-14
3.80208e-08
-8.84282e-14
3.80212e-08
-8.64646e-14
3.80215e-08
-8.32204e-14
3.80218e-08
-7.89683e-14
3.8022e-08
-6.88496e-14
3.80222e-08
-4.68027e-14
3.80223e-08
-2.96095e-14
3.80224e-08
-1.64667e-14
3.80225e-08
-2.57397e-14
3.80225e-08
-4.03095e-14
3.80225e-08
-1.37591e-14
3.80226e-08
3.98535e-14
3.80224e-08
2.40786e-14
3.80221e-08
-1.14854e-15
3.80221e-08
1.92709e-14
3.80221e-08
3.7143e-14
3.8022e-08
6.83318e-14
3.80222e-08
1.19172e-13
3.80214e-08
5.91388e-14
3.80214e-08
5.40199e-14
3.80214e-08
9.5998e-14
3.80213e-08
1.57315e-13
3.80212e-08
1.74711e-13
3.80211e-08
1.77869e-13
3.80211e-08
1.32029e-13
3.80211e-08
9.70816e-14
3.80214e-08
1.24291e-13
3.80215e-08
1.65646e-13
3.80216e-08
1.53585e-13
3.8022e-08
2.68719e-13
3.80216e-08
2.56686e-13
3.80213e-08
1.95047e-13
3.80212e-08
2.16196e-13
3.80207e-08
1.94366e-13
3.80206e-08
1.76534e-13
3.80205e-08
1.82123e-13
3.80204e-08
1.99423e-13
3.80202e-08
2.45974e-13
3.80211e-08
2.36098e-13
3.80209e-08
1.79342e-13
3.80207e-08
1.33895e-13
3.80205e-08
2.45022e-13
3.80204e-08
1.88982e-13
3.80203e-08
1.30674e-13
3.80203e-08
1.2472e-13
3.80202e-08
1.44515e-13
3.80201e-08
1.36492e-13
3.802e-08
1.25056e-13
3.80199e-08
1.46422e-13
3.80197e-08
2.25882e-13
3.80195e-08
1.8968e-13
3.80193e-08
2.04407e-13
3.80191e-08
1.76685e-13
3.80189e-08
1.93028e-13
3.80187e-08
2.33841e-13
3.80183e-08
2.76807e-13
3.8018e-08
3.35565e-13
3.80177e-08
3.87088e-13
3.80173e-08
4.47822e-13
3.80168e-08
5.16173e-13
3.80162e-08
6.12734e-13
3.80159e-08
7.25362e-13
3.80151e-08
8.4673e-13
3.80142e-08
9.92303e-13
3.80131e-08
1.17083e-12
3.80118e-08
1.38328e-12
3.80103e-08
1.63814e-12
3.80085e-08
1.9457e-12
3.80064e-08
2.3192e-12
3.80037e-08
2.77585e-12
3.80005e-08
3.33543e-12
3.79966e-08
4.02327e-12
3.79918e-08
4.87191e-12
3.79859e-08
5.92149e-12
3.79787e-08
7.23499e-12
3.79697e-08
8.87002e-12
3.79587e-08
1.09337e-11
3.79451e-08
1.35146e-11
3.79282e-08
1.67686e-11
3.79073e-08
2.0866e-11
3.78813e-08
2.60216e-11
3.78488e-08
3.24995e-11
3.78082e-08
4.06347e-11
3.77574e-08
5.08442e-11
3.76938e-08
6.35454e-11
3.76148e-08
7.89876e-11
3.75173e-08
9.75204e-11
3.73985e-08
1.18765e-10
3.72586e-08
1.3991e-10
1.4666e-10
2.0496e-69
2.15228e-72
1.74969e-68
4.8225e-71
4.87834e-67
1.74026e-69
6.06321e-66
1.98875e-68
6.36866e-65
2.91557e-67
5.63157e-64
4.19137e-66
4.07016e-63
3.35676e-65
2.3863e-62
1.94858e-64
1.15583e-61
9.04619e-64
4.69548e-61
3.48868e-63
1.61499e-60
1.13642e-62
4.76204e-60
3.19803e-62
1.26283e-59
8.32936e-62
3.33871e-59
2.26367e-61
8.94639e-59
6.31709e-61
3.0794e-58
1.59698e-60
2.80378e-57
6.74751e-60
4.05022e-56
1.67348e-58
5.14071e-55
3.02809e-57
5.26408e-54
3.90682e-56
4.30787e-53
6.23184e-55
1.1339e-51
3.05898e-53
1.21063e-49
4.44464e-51
1.39228e-46
9.45952e-48
2.20627e-45
2.49576e-46
2.1221e-45
1.2632e-46
-9.16835e-22
-3.51855e-22
-3.58467e-21
-2.4059e-21
-1.35052e-16
-1.06616e-16
2.77758e-11
2.12193e-12
4.95647e-11
2.24244e-12
3.96363e-12
-1.42331e-14
2.64323e-12
-1.34231e-12
2.50854e-10
-6.33105e-12
2.69449e-09
-7.86703e-13
1.09571e-08
-9.03306e-14
1.88934e-08
-7.94119e-15
2.24664e-08
-1.12076e-14
2.53934e-08
-1.02725e-13
2.9508e-08
-3.91552e-13
3.56912e-08
-7.30966e-13
4.24681e-08
-1.90486e-10
4.77017e-08
-1.18287e-09
5.25399e-08
-2.49451e-09
5.68442e-08
-4.87025e-09
6.08468e-08
-5.46066e-09
6.41018e-08
-4.58038e-09
6.68408e-08
-3.90051e-09
6.94787e-08
-3.75952e-09
7.21743e-08
-3.85315e-09
7.48213e-08
-3.81936e-09
7.72928e-08
-3.60879e-09
7.95439e-08
-3.322e-09
8.15759e-08
-3.01865e-09
8.33858e-08
-2.70046e-09
8.49755e-08
-2.37823e-09
8.63562e-08
-2.06905e-09
8.75469e-08
-1.78586e-09
8.85689e-08
-1.53372e-09
8.94438e-08
-1.31359e-09
9.01922e-08
-1.12371e-09
9.08262e-08
-9.61162e-10
9.13708e-08
-8.22438e-10
9.18385e-08
-7.04189e-10
9.22396e-08
-6.0337e-10
9.25839e-08
-5.17527e-10
9.28879e-08
-4.44608e-10
9.31432e-08
-3.82464e-10
9.33617e-08
-3.29467e-10
9.35511e-08
-2.84181e-10
9.37146e-08
-2.4539e-10
9.38557e-08
-2.1211e-10
9.39776e-08
-1.83518e-10
9.4083e-08
-1.58923e-10
9.41741e-08
-1.37665e-10
9.42511e-08
-1.19343e-10
9.43168e-08
-1.03499e-10
9.43766e-08
-8.96138e-11
9.44334e-08
-7.76308e-11
9.44784e-08
-6.7433e-11
9.45175e-08
-5.86848e-11
9.45519e-08
-5.11532e-11
9.45819e-08
-4.45444e-11
9.46081e-08
-3.87175e-11
9.46311e-08
-3.39425e-11
9.46511e-08
-2.96359e-11
9.46683e-08
-2.58091e-11
9.46834e-08
-2.26984e-11
9.46964e-08
-1.98615e-11
9.47076e-08
-1.73117e-11
9.47173e-08
-1.51984e-11
9.47258e-08
-1.32445e-11
9.47334e-08
-1.15481e-11
9.47403e-08
-1.00797e-11
9.47465e-08
-8.80882e-12
9.47522e-08
-7.76594e-12
9.47574e-08
-6.99001e-12
9.47621e-08
-6.2298e-12
9.47662e-08
-5.45048e-12
9.47697e-08
-4.77081e-12
9.47727e-08
-4.27149e-12
9.47753e-08
-3.79559e-12
9.47776e-08
-3.4176e-12
9.47795e-08
-3.0067e-12
9.47813e-08
-2.69244e-12
9.47829e-08
-2.31972e-12
9.47843e-08
-2.14109e-12
9.47855e-08
-1.89817e-12
9.47866e-08
-1.86667e-12
9.47873e-08
-1.57087e-12
9.47879e-08
-1.29105e-12
9.47882e-08
-1.12438e-12
9.47884e-08
-9.53171e-13
9.47885e-08
-9.33348e-13
9.47885e-08
-6.9058e-13
9.47887e-08
-5.81495e-13
9.47888e-08
-2.89475e-13
9.47889e-08
-1.83591e-13
9.47892e-08
-2.25993e-13
9.47895e-08
-2.19334e-13
9.47899e-08
-1.93323e-13
9.47903e-08
-1.77603e-13
9.47908e-08
-2.88573e-13
9.47911e-08
-1.86922e-13
9.47914e-08
-7.1157e-14
9.47915e-08
-3.86148e-14
9.47918e-08
-3.14028e-13
9.47923e-08
-3.31528e-13
9.47925e-08
-2.27557e-13
9.47927e-08
-2.70553e-13
9.4793e-08
-3.30561e-13
9.47933e-08
-3.545e-13
9.47935e-08
-2.75832e-13
9.47937e-08
-3.55253e-13
9.4794e-08
-3.65115e-13
9.47942e-08
-2.88186e-13
9.47942e-08
-9.99506e-14
9.47944e-08
-1.06099e-13
9.47944e-08
-4.20696e-14
9.47947e-08
-2.00121e-13
9.47948e-08
7.09862e-15
9.47949e-08
-5.35415e-14
9.47952e-08
-1.23107e-13
9.47955e-08
-1.53344e-13
9.47958e-08
-1.54156e-13
9.47961e-08
-1.82201e-13
9.47965e-08
-2.45505e-13
9.47969e-08
-2.78118e-13
9.47973e-08
-2.70298e-13
9.47977e-08
-2.80497e-13
9.47981e-08
-2.86889e-13
9.47985e-08
-2.86322e-13
9.47989e-08
-2.83897e-13
9.47993e-08
-2.81482e-13
9.47997e-08
-2.97973e-13
9.48002e-08
-3.31544e-13
9.48005e-08
-2.26271e-13
9.48008e-08
-2.07208e-13
9.48011e-08
-2.07497e-13
9.48014e-08
-2.2485e-13
9.48017e-08
-2.3079e-13
9.48019e-08
-2.36683e-13
9.48022e-08
-2.83463e-13
9.48024e-08
-2.93485e-13
9.48025e-08
-2.51908e-13
9.48025e-08
-2.19171e-13
9.48025e-08
-2.05099e-13
9.48024e-08
-1.9549e-13
9.48022e-08
-1.84306e-13
9.4802e-08
-1.85094e-13
9.48018e-08
-1.79278e-13
9.48017e-08
-1.33804e-13
9.48015e-08
-1.15517e-13
9.48014e-08
-1.13104e-13
9.48013e-08
-9.84603e-14
9.48012e-08
-7.51962e-14
9.48013e-08
-7.42753e-14
9.48014e-08
-7.6181e-14
9.48016e-08
-9.10217e-14
9.48017e-08
-6.83964e-14
9.48018e-08
3.28517e-14
9.48019e-08
3.43125e-14
9.4802e-08
8.95906e-14
9.4802e-08
8.71422e-14
9.4802e-08
7.53596e-14
9.4802e-08
-1.99454e-14
9.48019e-08
1.89622e-15
9.48018e-08
7.20517e-15
9.48014e-08
1.11253e-13
9.48009e-08
3.9448e-13
9.48005e-08
2.22804e-13
9.48002e-08
6.5313e-14
9.47998e-08
2.08155e-13
9.47994e-08
2.53658e-13
9.47991e-08
1.59975e-13
9.47989e-08
1.67776e-13
9.47987e-08
1.23175e-13
9.47985e-08
1.94288e-13
9.47984e-08
2.1625e-13
9.47974e-08
1.58592e-13
9.47942e-08
1.54333e-13
9.47939e-08
1.3196e-13
9.47934e-08
2.49424e-13
9.47936e-08
2.61419e-13
9.47924e-08
2.32231e-13
9.47921e-08
2.49859e-13
9.47919e-08
2.73735e-13
9.47916e-08
3.01061e-13
9.47913e-08
3.50792e-13
9.47911e-08
3.32124e-13
9.47909e-08
4.94279e-13
9.47949e-08
5.12564e-13
9.47946e-08
5.46386e-13
9.47941e-08
6.27355e-13
9.47935e-08
7.65275e-13
9.47928e-08
9.20816e-13
9.47921e-08
1.07705e-12
9.47913e-08
1.2587e-12
9.47902e-08
1.46666e-12
9.4789e-08
1.73229e-12
9.47876e-08
2.0622e-12
9.47858e-08
2.45457e-12
9.47837e-08
2.9128e-12
9.47813e-08
3.45085e-12
9.47784e-08
4.08679e-12
9.47751e-08
4.84354e-12
9.47711e-08
5.74822e-12
9.47664e-08
6.82324e-12
9.47608e-08
8.11998e-12
9.47541e-08
9.68636e-12
9.47461e-08
1.15817e-11
9.47364e-08
1.38806e-11
9.47247e-08
1.66754e-11
9.47107e-08
2.00804e-11
9.46937e-08
2.42277e-11
9.46732e-08
2.93243e-11
9.46485e-08
3.5542e-11
9.46186e-08
4.31372e-11
9.45827e-08
5.24021e-11
9.45396e-08
6.36786e-11
9.44879e-08
7.73373e-11
9.44264e-08
9.37613e-11
9.43533e-08
1.1339e-10
9.42659e-08
1.36641e-10
9.41658e-08
1.6367e-10
9.40506e-08
1.94284e-10
9.39205e-08
2.27671e-10
9.37783e-08
2.60953e-10
9.36333e-08
2.86297e-10
2.89901e-10
2.40158e-71
2.35759e-74
1.26241e-69
4.5856e-72
2.12961e-68
1.64706e-70
2.7838e-67
2.56567e-69
1.40467e-66
1.56634e-68
8.22458e-66
1.09356e-67
5.36479e-65
7.93995e-67
2.99414e-64
4.69702e-66
1.39354e-63
2.18869e-65
5.51248e-63
8.68536e-65
1.87694e-62
2.95605e-64
5.54186e-62
8.85463e-64
1.47382e-61
2.57003e-63
3.89365e-61
7.05803e-63
1.09341e-60
1.26248e-62
6.80919e-60
7.42193e-62
2.31345e-58
2.18926e-60
6.31232e-57
3.99539e-59
1.06866e-55
1.00356e-57
1.25971e-54
1.62973e-56
1.95765e-53
4.02295e-55
8.13729e-52
2.25943e-53
1.07479e-49
5.90366e-51
2.47558e-47
1.31079e-48
8.39644e-46
1.37035e-46
9.01867e-46
6.40978e-47
-2.59542e-22
-7.0916e-23
-1.70931e-21
-6.40546e-22
-1.0193e-16
-5.92734e-17
1.82768e-12
2.94047e-13
3.65378e-12
3.8286e-13
1.7271e-11
1.5682e-12
7.10595e-12
7.08814e-13
8.50457e-13
-9.76175e-14
7.74418e-14
-1.15299e-14
1.63757e-14
-2.6987e-14
9.20935e-15
-6.85837e-15
9.18037e-15
-3.54269e-15
1.83063e-14
-1.02554e-13
4.99207e-14
-3.79981e-13
1.30674e-13
-6.76138e-13
4.07665e-11
-3.67552e-12
6.03777e-09
-1.57407e-12
3.73875e-08
-2.0578e-12
7.17812e-08
-3.14645e-12
8.40537e-08
-1.21349e-11
9.05426e-08
-1.66796e-09
9.74272e-08
-1.71791e-09
1.04475e-07
-3.91428e-09
1.09288e-07
-6.88974e-09
1.1275e-07
-7.02288e-09
1.15687e-07
-6.46633e-09
1.18365e-07
-5.92586e-09
1.20783e-07
-5.38856e-09
1.22912e-07
-4.8111e-09
1.24759e-07
-4.21823e-09
1.26348e-07
-3.65563e-09
1.27709e-07
-3.1446e-09
1.2887e-07
-2.69407e-09
1.29862e-07
-2.30367e-09
1.30709e-07
-1.96876e-09
1.31433e-07
-1.6834e-09
1.32052e-07
-1.44055e-09
1.32583e-07
-1.23399e-09
1.33038e-07
-1.05831e-09
1.33428e-07
-9.08766e-10
1.3376e-07
-7.81318e-10
1.34049e-07
-6.72709e-10
1.34304e-07
-5.80009e-10
1.34521e-07
-5.0078e-10
1.34709e-07
-4.32868e-10
1.34871e-07
-3.74589e-10
1.35013e-07
-3.2447e-10
1.35135e-07
-2.81231e-10
1.35241e-07
-2.43896e-10
1.35333e-07
-2.11588e-10
1.35413e-07
-1.83601e-10
1.35482e-07
-1.59337e-10
1.35542e-07
-1.38354e-10
1.35595e-07
-1.20258e-10
1.3564e-07
-1.04668e-10
1.35676e-07
-9.12239e-11
1.35702e-07
-7.94174e-11
1.35732e-07
-6.92984e-11
1.35758e-07
-6.05027e-11
1.35781e-07
-5.25927e-11
1.35801e-07
-4.5987e-11
1.35819e-07
-4.01217e-11
1.35842e-07
-3.48599e-11
1.3586e-07
-3.05465e-11
1.35871e-07
-2.67661e-11
1.35881e-07
-2.34616e-11
1.35888e-07
-2.05878e-11
1.35893e-07
-1.79999e-11
1.359e-07
-1.5777e-11
1.35906e-07
-1.37777e-11
1.35911e-07
-1.21975e-11
1.35916e-07
-1.08075e-11
1.3592e-07
-9.56333e-12
1.35925e-07
-8.33751e-12
1.35933e-07
-7.38062e-12
1.35936e-07
-6.56573e-12
1.35938e-07
-5.85182e-12
1.3594e-07
-5.23937e-12
1.35939e-07
-4.73564e-12
1.3594e-07
-4.28677e-12
1.35942e-07
-3.83027e-12
1.35943e-07
-3.4414e-12
1.35944e-07
-3.02502e-12
1.35945e-07
-2.6826e-12
1.35946e-07
-2.37262e-12
1.35948e-07
-2.01974e-12
1.35952e-07
-1.62128e-12
1.35952e-07
-1.34821e-12
1.35953e-07
-1.2501e-12
1.35949e-07
-1.16116e-12
1.35944e-07
-9.94851e-13
1.35945e-07
-8.80595e-13
1.35945e-07
-6.86027e-13
1.35945e-07
-5.44811e-13
1.35946e-07
-4.31477e-13
1.35946e-07
-3.33605e-13
1.35946e-07
-2.79186e-13
1.35946e-07
-2.03223e-13
1.35946e-07
-1.40522e-13
1.35952e-07
-8.52315e-14
1.35954e-07
-1.01644e-13
1.35949e-07
-2.91459e-13
1.35949e-07
-3.66481e-13
1.35949e-07
-3.52847e-13
1.35949e-07
-3.58298e-13
1.35949e-07
-4.27918e-13
1.3595e-07
-4.95267e-13
1.3595e-07
-4.71681e-13
1.3595e-07
-4.17597e-13
1.3595e-07
-3.41407e-13
1.35951e-07
-2.72558e-13
1.35952e-07
-9.03551e-14
1.35958e-07
1.47823e-14
1.35957e-07
8.17489e-14
1.35956e-07
-1.41007e-14
1.35956e-07
-3.49052e-14
1.35957e-07
-5.71058e-14
1.35957e-07
-9.1971e-14
1.35957e-07
-1.22918e-13
1.35959e-07
-1.16224e-13
1.3596e-07
-1.16534e-13
1.3596e-07
-1.39687e-13
1.3596e-07
-1.74625e-13
1.35961e-07
-1.90028e-13
1.35961e-07
-1.97938e-13
1.35962e-07
-2.04308e-13
1.35962e-07
-2.10449e-13
1.35963e-07
-2.17994e-13
1.35963e-07
-2.13389e-13
1.35963e-07
-2.01706e-13
1.35964e-07
-2.19001e-13
1.35964e-07
-2.1818e-13
1.35964e-07
-2.10052e-13
1.35965e-07
-2.08717e-13
1.35965e-07
-2.21869e-13
1.35966e-07
-2.3736e-13
1.35966e-07
-2.2753e-13
1.35967e-07
-2.13921e-13
1.35967e-07
-2.04152e-13
1.35967e-07
-1.98775e-13
1.35968e-07
-1.79516e-13
1.35968e-07
-1.52275e-13
1.35968e-07
-1.23146e-13
1.35968e-07
-8.10453e-14
1.35968e-07
-4.66805e-14
1.35968e-07
-5.04087e-14
1.35968e-07
-3.41882e-14
1.35968e-07
-1.77109e-14
1.35968e-07
-4.52782e-15
1.35968e-07
9.07939e-15
1.35967e-07
3.59638e-14
1.35967e-07
1.41706e-14
1.35966e-07
-1.01452e-14
1.35965e-07
5.18457e-15
1.35965e-07
3.24439e-14
1.35965e-07
9.37033e-14
1.35965e-07
9.78463e-14
1.35965e-07
1.24682e-13
1.35966e-07
1.71084e-13
1.35967e-07
2.68241e-13
1.35967e-07
1.89041e-13
1.35963e-07
7.42756e-14
1.35962e-07
1.01948e-13
1.3596e-07
-2.1871e-16
1.3596e-07
2.57834e-13
1.35964e-07
4.07625e-13
1.35961e-07
3.08113e-13
1.35961e-07
2.62156e-13
1.35961e-07
3.52364e-13
1.35961e-07
2.79115e-13
1.35961e-07
2.58681e-13
1.35966e-07
4.34685e-13
1.35967e-07
4.07686e-13
1.35967e-07
3.46185e-13
1.35967e-07
3.28238e-13
1.35965e-07
3.41215e-13
1.35961e-07
3.97204e-13
1.3596e-07
4.32122e-13
1.3596e-07
5.27744e-13
1.3596e-07
5.96165e-13
1.35959e-07
6.71205e-13
1.35959e-07
7.53285e-13
1.3596e-07
8.46085e-13
1.35963e-07
8.82679e-13
1.35963e-07
9.51336e-13
1.35962e-07
1.13133e-12
1.35962e-07
1.25986e-12
1.35961e-07
1.4324e-12
1.3596e-07
1.6719e-12
1.35959e-07
1.96637e-12
1.35959e-07
2.2586e-12
1.35958e-07
2.56785e-12
1.35956e-07
2.97452e-12
1.35955e-07
3.50096e-12
1.35953e-07
4.14263e-12
1.3595e-07
4.90443e-12
1.35948e-07
5.80001e-12
1.35944e-07
6.85277e-12
1.3594e-07
8.0914e-12
1.35936e-07
9.55843e-12
1.3593e-07
1.12972e-11
1.35924e-07
1.33707e-11
1.35916e-07
1.5846e-11
1.35907e-07
1.88075e-11
1.35897e-07
2.23562e-11
1.35884e-07
2.66117e-11
1.3587e-07
3.17221e-11
1.35852e-07
3.78615e-11
1.35831e-07
4.52404e-11
1.35807e-07
5.41003e-11
1.35778e-07
6.47186e-11
1.35744e-07
7.74003e-11
1.35704e-07
9.25072e-11
1.35657e-07
1.10384e-10
1.35603e-07
1.31403e-10
1.35541e-07
1.55898e-10
1.3547e-07
1.84088e-10
1.35391e-07
2.15989e-10
1.35303e-07
2.51247e-10
1.35208e-07
2.88905e-10
1.35108e-07
3.27155e-10
1.35007e-07
3.6197e-10
1.34908e-07
3.85487e-10
3.87016e-10
2.35513e-74
2.46462e-77
5.5461e-72
2.32098e-74
1.56452e-70
1.12897e-72
2.71041e-69
2.41886e-71
1.83421e-68
1.87477e-70
1.27444e-67
1.47386e-69
9.13679e-67
1.15959e-68
5.3769e-66
7.1164e-68
2.71858e-65
4.50033e-67
1.15382e-64
1.36899e-66
4.17843e-64
5.40454e-66
1.35839e-63
1.2449e-65
4.65705e-63
3.52927e-65
1.56442e-62
6.74547e-64
3.91879e-62
3.09415e-63
2.96975e-61
2.22175e-62
1.01225e-59
7.53355e-61
5.51562e-58
3.78351e-59
1.52738e-56
9.7444e-58
2.88923e-55
5.71861e-57
6.11772e-54
9.24181e-56
1.92683e-52
1.86896e-54
7.6688e-51
2.07702e-52
1.28702e-48
3.86434e-50
1.318e-46
7.02e-48
1.06497e-24
1.04322e-25
5.15474e-22
1.31649e-22
1.49883e-21
1.65079e-22
-5.77492e-17
-1.07499e-17
2.59519e-13
3.45194e-14
5.66102e-13
7.73467e-14
1.68189e-12
2.81762e-14
1.62629e-12
-2.88668e-14
6.18616e-13
4.1403e-14
1.80347e-13
1.84866e-14
1.30232e-13
-5.91647e-15
8.87338e-14
-4.7295e-15
1.18407e-13
-2.06e-15
2.0976e-12
-8.2536e-15
2.50789e-12
-4.46644e-14
2.7427e-12
-2.24195e-14
8.75926e-13
-4.2795e-14
9.86574e-13
-9.02632e-14
1.40159e-12
-5.23843e-13
2.28629e-12
-1.83337e-12
4.68798e-12
-9.84158e-12
1.44089e-09
-7.31755e-11
1.6243e-08
-3.68436e-10
8.21553e-08
-8.85848e-10
1.36558e-07
-1.56125e-09
1.41737e-07
-2.84399e-09
1.45483e-07
-6.39105e-09
1.49138e-07
-7.49285e-09
1.51503e-07
-7.13699e-09
1.53373e-07
-6.52513e-09
1.55005e-07
-5.77698e-09
1.56401e-07
-5.0177e-09
1.57589e-07
-4.31871e-09
1.58603e-07
-3.70099e-09
1.5947e-07
-3.1662e-09
1.60212e-07
-2.70835e-09
1.6085e-07
-2.3183e-09
1.61397e-07
-1.98672e-09
1.61867e-07
-1.7048e-09
1.62267e-07
-1.46489e-09
1.62618e-07
-1.26033e-09
1.62923e-07
-1.08578e-09
1.63186e-07
-9.36516e-10
1.63415e-07
-8.08762e-10
1.63614e-07
-6.99249e-10
1.63791e-07
-6.05192e-10
1.63947e-07
-5.24286e-10
1.64077e-07
-4.54644e-10
1.64191e-07
-3.94506e-10
1.6429e-07
-3.42563e-10
1.64376e-07
-2.97609e-10
1.64452e-07
-2.58652e-10
1.64518e-07
-2.24892e-10
1.64575e-07
-1.95629e-10
1.64625e-07
-1.70301e-10
1.64669e-07
-1.48322e-10
1.64706e-07
-1.2927e-10
1.64739e-07
-1.12737e-10
1.64768e-07
-9.83718e-11
1.6478e-07
-8.56085e-11
1.64811e-07
-7.47138e-11
1.64833e-07
-6.52903e-11
1.6485e-07
-5.70404e-11
1.64865e-07
-4.98325e-11
1.64878e-07
-4.3581e-11
1.64889e-07
-3.81593e-11
1.64899e-07
-3.35356e-11
1.64908e-07
-2.9444e-11
1.64912e-07
-2.57291e-11
1.64918e-07
-2.24039e-11
1.64927e-07
-1.97476e-11
1.64933e-07
-1.74078e-11
1.64938e-07
-1.5372e-11
1.64942e-07
-1.35437e-11
1.64946e-07
-1.19758e-11
1.6495e-07
-1.05998e-11
1.64953e-07
-9.38679e-12
1.64956e-07
-8.39712e-12
1.64959e-07
-7.54355e-12
1.64961e-07
-6.73619e-12
1.64963e-07
-6.03139e-12
1.64965e-07
-5.38647e-12
1.64967e-07
-4.79175e-12
1.64968e-07
-4.24977e-12
1.64969e-07
-3.75382e-12
1.64971e-07
-3.29561e-12
1.64971e-07
-2.85962e-12
1.64972e-07
-2.49291e-12
1.64973e-07
-2.13928e-12
1.64974e-07
-1.89894e-12
1.64974e-07
-1.69918e-12
1.64974e-07
-1.52012e-12
1.64974e-07
-1.31937e-12
1.64974e-07
-1.11791e-12
1.64974e-07
-9.37386e-13
1.64973e-07
-7.59633e-13
1.64972e-07
-6.23725e-13
1.64972e-07
-4.51617e-13
1.64972e-07
-3.29663e-13
1.64972e-07
-3.84236e-13
1.64972e-07
-3.83851e-13
1.64973e-07
-3.84672e-13
1.64973e-07
-3.9708e-13
1.64973e-07
-4.6863e-13
1.64974e-07
-4.63087e-13
1.64974e-07
-5.6351e-13
1.64975e-07
-5.79578e-13
1.64975e-07
-6.80141e-13
1.64976e-07
-5.76757e-13
1.64976e-07
-4.54857e-13
1.64976e-07
-3.84707e-13
1.64977e-07
-3.06813e-13
1.64977e-07
-1.73983e-13
1.64977e-07
-6.83953e-14
1.64977e-07
-1.02809e-13
1.64978e-07
-1.1479e-13
1.64978e-07
-1.11604e-13
1.64978e-07
-1.26626e-13
1.64979e-07
-1.48573e-13
1.64979e-07
-1.65084e-13
1.6498e-07
-1.76905e-13
1.6498e-07
-1.83524e-13
1.64981e-07
-2.03956e-13
1.64981e-07
-2.24179e-13
1.64982e-07
-2.39942e-13
1.64982e-07
-2.4985e-13
1.64983e-07
-2.55607e-13
1.64983e-07
-2.59233e-13
1.64984e-07
-2.60756e-13
1.64984e-07
-2.61411e-13
1.64985e-07
-2.63069e-13
1.64985e-07
-2.78073e-13
1.64986e-07
-2.88919e-13
1.64986e-07
-2.95684e-13
1.64987e-07
-2.92487e-13
1.64987e-07
-2.87565e-13
1.64987e-07
-2.7865e-13
1.64987e-07
-2.58353e-13
1.64987e-07
-2.42626e-13
1.64987e-07
-2.40443e-13
1.64988e-07
-2.30013e-13
1.64988e-07
-2.14713e-13
1.64988e-07
-1.94173e-13
1.64987e-07
-1.66209e-13
1.64987e-07
-1.34155e-13
1.64987e-07
-1.09593e-13
1.64987e-07
-9.4013e-14
1.64987e-07
-8.22028e-14
1.64986e-07
-7.06792e-14
1.64986e-07
-5.96629e-14
1.64986e-07
-4.85823e-14
1.64986e-07
-4.14133e-14
1.64986e-07
-3.74252e-14
1.64985e-07
-4.22527e-14
1.64985e-07
-3.61244e-14
1.64985e-07
-1.64653e-14
1.64985e-07
9.13783e-15
1.64986e-07
2.87297e-14
1.64986e-07
7.03762e-14
1.64986e-07
1.28852e-13
1.64986e-07
1.15061e-13
1.64986e-07
7.44623e-14
1.64986e-07
3.68871e-14
1.64986e-07
2.94901e-14
1.64986e-07
7.62832e-14
1.64986e-07
1.56099e-13
1.64986e-07
2.06163e-13
1.64986e-07
2.47605e-13
1.64985e-07
2.55492e-13
1.64985e-07
2.51163e-13
1.64984e-07
3.57736e-13
1.64979e-07
4.73007e-13
1.64982e-07
4.86941e-13
1.64982e-07
4.40039e-13
1.64982e-07
4.41958e-13
1.64982e-07
4.2882e-13
1.64982e-07
4.3995e-13
1.64982e-07
4.79703e-13
1.6498e-07
5.41077e-13
1.64974e-07
6.64502e-13
1.64974e-07
7.77527e-13
1.64974e-07
9.43101e-13
1.64976e-07
1.08818e-12
1.64975e-07
1.21839e-12
1.64975e-07
1.31667e-12
1.64971e-07
1.48836e-12
1.64971e-07
1.69177e-12
1.6497e-07
1.93375e-12
1.64969e-07
2.21467e-12
1.64968e-07
2.55826e-12
1.64967e-07
2.97528e-12
1.6497e-07
3.43213e-12
1.64972e-07
3.94527e-12
1.64971e-07
4.58304e-12
1.64969e-07
5.37792e-12
1.64967e-07
6.33279e-12
1.64965e-07
7.46695e-12
1.64962e-07
8.80276e-12
1.64958e-07
1.03723e-11
1.64954e-07
1.22182e-11
1.6495e-07
1.43938e-11
1.64944e-07
1.69653e-11
1.64937e-07
2.00089e-11
1.6493e-07
2.36153e-11
1.64921e-07
2.78932e-11
1.6491e-07
3.29702e-11
1.64898e-07
3.89979e-11
1.64883e-07
4.61521e-11
1.64867e-07
5.46374e-11
1.64847e-07
6.46875e-11
1.64825e-07
7.65637e-11
1.64799e-07
9.05509e-11
1.6477e-07
1.06953e-10
1.64736e-07
1.26078e-10
1.64698e-07
1.48218e-10
1.64656e-07
1.73613e-10
1.6461e-07
2.02408e-10
1.64559e-07
2.34559e-10
1.64505e-07
2.69714e-10
1.64449e-07
3.07145e-10
1.64393e-07
3.45471e-10
1.64337e-07
3.82548e-10
1.64284e-07
4.14544e-10
1.64235e-07
4.34884e-10
4.3572e-10
2.45889e-77
5.34924e-80
2.23556e-74
1.72343e-76
1.12529e-72
1.25432e-74
2.60954e-71
3.60755e-73
2.12786e-70
2.37428e-72
1.6311e-69
5.55393e-71
1.27275e-68
4.99455e-70
9.0384e-68
3.78436e-69
5.87706e-67
1.42008e-68
4.12841e-66
1.04014e-67
1.869e-65
5.12411e-67
1.04727e-64
2.83064e-66
1.1638e-63
2.89312e-65
3.15056e-60
1.61034e-61
-1.94783e-59
-1.07737e-60
-3.64237e-58
-2.16583e-59
-2.14371e-57
-1.35933e-58
-6.84457e-57
-4.59156e-58
-8.40378e-57
-5.92866e-58
1.74051e-56
1.09054e-57
7.93606e-55
6.14421e-56
7.94202e-54
7.49231e-55
3.46302e-50
2.69604e-51
9.77468e-50
5.3879e-51
6.90789e-48
3.08775e-49
1.73902e-24
9.62353e-26
1.74948e-21
1.41414e-22
2.57561e-20
2.6275e-21
-1.08782e-17
-1.3269e-18
3.27391e-14
1.7533e-15
1.0593e-13
4.42638e-15
1.29789e-13
3.41778e-15
9.91195e-14
3.95964e-16
1.25658e-13
-1.86833e-15
1.49051e-13
-2.56406e-15
9.22457e-14
9.69228e-16
1.27567e-14
1.51981e-16
3.48284e-14
-1.76535e-16
9.77561e-14
-6.99078e-16
1.97963e-13
-1.64858e-15
3.42826e-13
-3.91562e-15
7.22545e-13
-6.14082e-15
2.13006e-12
-2.89895e-14
6.36947e-12
-1.28809e-13
2.3952e-11
-5.1686e-13
8.36031e-11
-1.71106e-12
2.92575e-10
-6.05355e-12
1.05364e-09
-2.13679e-11
2.60222e-09
-6.5766e-11
1.04195e-08
-2.09581e-10
5.59951e-08
-5.1579e-10
1.51732e-07
-1.70283e-09
1.73854e-07
-4.99938e-09
1.75756e-07
-7.13895e-09
1.7686e-07
-7.15204e-09
1.77893e-07
-6.57038e-09
1.78813e-07
-5.79985e-09
1.79587e-07
-5.03314e-09
1.8025e-07
-4.3366e-09
1.80823e-07
-3.72603e-09
1.81322e-07
-3.19952e-09
1.81756e-07
-2.74888e-09
1.82135e-07
-2.36408e-09
1.82466e-07
-2.03564e-09
1.82756e-07
-1.75495e-09
1.83012e-07
-1.5148e-09
1.83236e-07
-1.309e-09
1.83427e-07
-1.13237e-09
1.83595e-07
-9.80552e-10
1.83746e-07
-8.49853e-10
1.83878e-07
-7.37145e-10
1.83994e-07
-6.39877e-10
1.84098e-07
-5.55755e-10
1.84193e-07
-4.82981e-10
1.84271e-07
-4.19993e-10
1.84339e-07
-3.65403e-10
1.84398e-07
-3.18079e-10
1.8445e-07
-2.76984e-10
1.84496e-07
-2.41295e-10
1.84536e-07
-2.10277e-10
1.84571e-07
-1.83347e-10
1.84602e-07
-1.5991e-10
1.84628e-07
-1.39528e-10
1.84649e-07
-1.21776e-10
1.8466e-07
-1.06293e-10
1.84677e-07
-9.29017e-11
1.84693e-07
-8.11721e-11
1.84706e-07
-7.09124e-11
1.84718e-07
-6.2148e-11
1.84729e-07
-5.43465e-11
1.84743e-07
-4.75469e-11
1.84758e-07
-4.16656e-11
1.84764e-07
-3.65873e-11
1.84765e-07
-3.2142e-11
1.84771e-07
-2.81389e-11
1.84777e-07
-2.47032e-11
1.84781e-07
-2.17298e-11
1.84785e-07
-1.91361e-11
1.84788e-07
-1.69184e-11
1.84791e-07
-1.50369e-11
1.84794e-07
-1.33105e-11
1.84802e-07
-1.17782e-11
1.84807e-07
-1.04885e-11
1.84808e-07
-9.36314e-12
1.8481e-07
-8.36281e-12
1.84811e-07
-7.46116e-12
1.84813e-07
-6.6509e-12
1.84814e-07
-5.92076e-12
1.84815e-07
-5.25984e-12
1.84816e-07
-4.66175e-12
1.84816e-07
-4.12033e-12
1.84817e-07
-3.63248e-12
1.84818e-07
-3.21533e-12
1.84819e-07
-2.82904e-12
1.84819e-07
-2.49151e-12
1.8482e-07
-2.18784e-12
1.8482e-07
-1.91669e-12
1.84821e-07
-1.67004e-12
1.84821e-07
-1.43715e-12
1.84821e-07
-1.2181e-12
1.84822e-07
-1.04852e-12
1.84819e-07
-9.06958e-13
1.84813e-07
-7.79764e-13
1.84813e-07
-6.75505e-13
1.84813e-07
-6.15714e-13
1.84813e-07
-6.01274e-13
1.84813e-07
-5.77876e-13
1.84813e-07
-5.8479e-13
1.84813e-07
-5.82235e-13
1.84813e-07
-6.47972e-13
1.84813e-07
-5.8403e-13
1.8482e-07
-5.94454e-13
1.84823e-07
-5.35858e-13
1.84821e-07
-5.2302e-13
1.84821e-07
-4.67766e-13
1.84821e-07
-3.81011e-13
1.84821e-07
-2.95641e-13
1.84821e-07
-2.2408e-13
1.84822e-07
-1.7249e-13
1.84824e-07
-1.3049e-13
1.84824e-07
-1.22079e-13
1.84824e-07
-1.29898e-13
1.84825e-07
-1.36233e-13
1.84825e-07
-1.46501e-13
1.84825e-07
-1.61355e-13
1.84826e-07
-1.76552e-13
1.84826e-07
-1.92041e-13
1.84827e-07
-2.06685e-13
1.84827e-07
-2.20781e-13
1.84828e-07
-2.31787e-13
1.84829e-07
-2.38865e-13
1.84829e-07
-2.4247e-13
1.8483e-07
-2.43958e-13
1.8483e-07
-2.44185e-13
1.84831e-07
-2.45317e-13
1.84831e-07
-2.48376e-13
1.84832e-07
-2.50017e-13
1.84832e-07
-2.56339e-13
1.84833e-07
-2.59252e-13
1.84833e-07
-2.56567e-13
1.84834e-07
-2.48817e-13
1.84834e-07
-2.36568e-13
1.84834e-07
-2.21722e-13
1.84834e-07
-2.07971e-13
1.84835e-07
-1.96546e-13
1.84835e-07
-1.84784e-13
1.84835e-07
-1.69869e-13
1.84835e-07
-1.51535e-13
1.84835e-07
-1.30362e-13
1.84836e-07
-1.08637e-13
1.84836e-07
-9.02306e-14
1.84836e-07
-7.70759e-14
1.84835e-07
-6.70731e-14
1.84835e-07
-5.773e-14
1.84835e-07
-4.83928e-14
1.84835e-07
-3.91238e-14
1.84834e-07
-3.04722e-14
1.84834e-07
-2.34143e-14
1.84834e-07
-1.35853e-14
1.84833e-07
-1.66897e-15
1.84833e-07
1.40628e-14
1.84833e-07
3.43491e-14
1.84833e-07
5.91839e-14
1.84832e-07
7.65193e-14
1.84832e-07
7.73375e-14
1.84832e-07
7.0681e-14
1.84832e-07
6.91545e-14
1.84832e-07
8.7414e-14
1.84832e-07
9.77333e-14
1.84832e-07
1.37258e-13
1.84833e-07
1.99618e-13
1.84833e-07