/*--------------------------------*- C++ -*----------------------------------*\
| =========                 |                                                 |
| \\      /  F ield         | OpenFOAM: The Open Source CFD Toolbox           |
|  \\    /   O peration     | Version:  2406                                  |
|   \\  /    A nd           | Website:  www.openfoam.com                      |
|    \\/     M anipulation  |                                                 |
\*---------------------------------------------------------------------------*/
FoamFile
{
    version     2.0;
    format      ascii;
    arch        "LSB;label=32;scalar=64";
    class       volScalarField;
    location    "0.1";
    object      p_rgh;
}
// * * * * * * * * * * * * * * * * * * * * * * * * * * * * * * * * * * * * * //

dimensions      [1 -1 -2 0 0 0 0];

internalField   nonuniform List<scalar> 
6250
(
4999.93
4999.9
4999.92
4999.92
4999.92
4999.91
4999.91
4999.9
4999.9
4999.9
4999.9
4999.89
4999.89
4999.89
4999.89
4999.89
4999.88
4999.88
4999.88
4999.88
4999.88
4999.88
4999.88
4999.87
4999.87
4999.87
4999.87
4999.87
4999.87
5000.48
5026.88
5052.25
5052.27
5030.35
5010.48
5003.65
5001.67
4997
4986.54
4972.55
4957.72
4944.27
4934.84
4930.49
4928.79
4926.56
4922.13
4916.05
4909.5
4902.82
4895.42
4886.7
4876.43
4864.65
4851.37
4836.66
4820.62
4803.37
4785.04
4765.76
4745.65
4724.82
4703.37
4681.39
4658.95
4636.12
4612.96
4589.52
4565.84
4541.95
4517.89
4493.67
4469.32
4444.86
4420.3
4395.66
4370.94
4346.16
4321.32
4296.44
4271.52
4246.56
4221.57
4196.55
4171.51
4146.45
4121.37
4096.28
4071.17
4046.06
4020.93
3995.79
3970.64
3945.49
3920.33
3895.16
3870
3844.83
3819.65
3794.48
3769.3
3744.11
3718.92
3693.73
3668.53
3643.34
3618.14
3592.95
3567.76
3542.57
3517.37
3492.18
3466.97
3441.77
3416.56
3391.35
3366.14
3340.93
3315.73
3290.53
3265.33
3240.12
3214.92
3189.72
3164.51
3139.3
3114.08
3088.86
3063.64
3038.42
3013.19
2987.97
2962.75
2937.54
2912.32
2887.11
2861.89
2836.68
2811.47
2786.26
2761.04
2735.83
2710.61
2685.39
2660.17
2634.95
2609.73
2584.51
2559.28
2534.05
2508.83
2483.6
2458.37
2433.13
2407.9
2382.67
2357.43
2332.19
2306.95
2281.71
2256.46
2231.21
2205.96
2180.7
2155.44
2130.17
2104.89
2079.61
2054.33
2029.04
2003.75
1978.45
1953.15
1927.85
1902.54
1877.24
1851.93
1826.62
1801.31
1776
1750.69
1725.38
1700.08
1674.77
1649.47
1624.17
1598.87
1573.57
1548.27
1522.97
1497.67
1472.37
1447.08
1421.78
1396.49
1371.19
1345.89
1320.6
1295.3
1270.01
1244.71
1219.42
1194.12
1168.82
1143.53
1118.23
1092.94
1067.64
1042.35
1017.05
991.761
966.469
941.178
915.889
890.6
865.311
840.023
814.736
789.45
764.165
738.88
713.595
688.311
663.027
637.745
612.463
587.181
561.901
536.621
511.342
486.065
460.789
435.515
410.243
384.974
359.71
334.452
309.201
283.96
258.732
233.521
208.334
183.179
158.067
133.018
108.055
83.1846
58.3837
33.8643
10.8247
4999.92
4999.89
4999.91
4999.92
4999.92
4999.91
4999.91
4999.9
4999.9
4999.9
4999.9
4999.89
4999.89
4999.89
4999.89
4999.89
4999.88
4999.88
4999.88
4999.88
4999.88
4999.88
4999.87
4999.87
4999.87
4999.87
4999.87
4999.87
4999.87
4999.92
4999.94
4999.73
4999.81
4999.52
4997.57
4993.09
4997.55
5001.83
4992.83
4981.65
4972.93
4960.31
4939.35
4924.48
4917.45
4913.08
4906.82
4899.68
4894.71
4891.36
4887.28
4880.68
4871.66
4860.68
4848.08
4833.92
4818.33
4801.44
4783.41
4764.38
4744.48
4723.82
4702.52
4680.67
4658.34
4635.61
4612.52
4589.14
4565.51
4541.66
4517.64
4493.45
4469.13
4444.69
4420.15
4395.52
4370.82
4346.06
4321.24
4296.37
4271.45
4246.5
4221.52
4196.51
4171.47
4146.41
4121.34
4096.25
4071.15
4046.03
4020.91
3995.78
3970.63
3945.48
3920.32
3895.16
3869.99
3844.82
3819.65
3794.48
3769.3
3744.11
3718.92
3693.73
3668.53
3643.34
3618.14
3592.95
3567.76
3542.56
3517.37
3492.17
3466.97
3441.76
3416.56
3391.35
3366.14
3340.94
3315.73
3290.53
3265.33
3240.13
3214.93
3189.72
3164.51
3139.3
3114.08
3088.87
3063.64
3038.42
3013.2
2987.98
2962.76
2937.54
2912.33
2887.11
2861.9
2836.69
2811.48
2786.26
2761.05
2735.83
2710.62
2685.4
2660.18
2634.96
2609.74
2584.51
2559.29
2534.06
2508.83
2483.61
2458.38
2433.14
2407.91
2382.68
2357.44
2332.2
2306.96
2281.72
2256.47
2231.22
2205.97
2180.71
2155.45
2130.18
2104.9
2079.62
2054.34
2029.05
2003.75
1978.46
1953.15
1927.85
1902.54
1877.24
1851.93
1826.62
1801.31
1776
1750.69
1725.39
1700.08
1674.78
1649.47
1624.17
1598.87
1573.57
1548.27
1522.97
1497.67
1472.38
1447.08
1421.78
1396.49
1371.19
1345.9
1320.6
1295.3
1270.01
1244.71
1219.42
1194.12
1168.83
1143.53
1118.23
1092.94
1067.64
1042.35
1017.06
991.766
966.473
941.183
915.893
890.603
865.315
840.027
814.74
789.455
764.17
738.885
713.602
688.319
663.037
637.756
612.476
587.196
561.918
536.641
511.366
486.093
460.821
435.553
410.288
385.027
359.773
334.526
309.288
284.062
258.85
233.657
208.486
183.344
158.238
133.181
108.184
83.2111
58.1737
33.3418
10.5739
4999.92
4999.88
4999.91
4999.92
4999.92
4999.91
4999.91
4999.9
4999.9
4999.9
4999.9
4999.89
4999.89
4999.89
4999.89
4999.88
4999.88
4999.88
4999.88
4999.88
4999.87
4999.87
4999.87
4999.87
4999.87
4999.87
4999.86
4999.86
4999.86
4999.85
4999.82
4999.79
4999.81
4999.81
4999.77
4999.75
4999.78
4999.78
4999.77
4999.77
4999.77
4999.73
4997.8
4989.31
4983.34
4982.45
4960.3
4922.26
4897.21
4887.38
4884.03
4879.15
4871.54
4861.97
4850.13
4836.2
4820.55
4803.52
4785.3
4766.06
4745.94
4725.1
4703.62
4681.62
4659.16
4636.31
4613.13
4589.67
4565.97
4542.06
4517.98
4493.75
4469.38
4444.91
4420.33
4395.67
4370.95
4346.17
4321.34
4296.46
4271.53
4246.57
4221.58
4196.56
4171.51
4146.45
4121.37
4096.28
4071.17
4046.06
4020.93
3995.8
3970.65
3945.49
3920.33
3895.17
3870
3844.83
3819.66
3794.48
3769.3
3744.12
3718.93
3693.74
3668.54
3643.35
3618.15
3592.96
3567.76
3542.57
3517.37
3492.17
3466.97
3441.76
3416.55
3391.35
3366.14
3340.94
3315.74
3290.53
3265.33
3240.13
3214.92
3189.71
3164.51
3139.29
3114.07
3088.85
3063.63
3038.41
3013.19
2987.97
2962.76
2937.54
2912.32
2887.11
2861.9
2836.68
2811.47
2786.26
2761.04
2735.83
2710.61
2685.39
2660.18
2634.96
2609.73
2584.51
2559.29
2534.06
2508.83
2483.6
2458.37
2433.14
2407.91
2382.67
2357.44
2332.2
2306.96
2281.72
2256.47
2231.22
2205.97
2180.71
2155.45
2130.18
2104.9
2079.63
2054.34
2029.05
2003.76
1978.46
1953.16
1927.85
1902.54
1877.24
1851.93
1826.62
1801.31
1776
1750.69
1725.38
1700.08
1674.77
1649.47
1624.16
1598.86
1573.56
1548.27
1522.97
1497.68
1472.38
1447.08
1421.78
1396.49
1371.19
1345.9
1320.6
1295.3
1270
1244.71
1219.41
1194.12
1168.82
1143.53
1118.23
1092.94
1067.64
1042.35
1017.06
991.766
966.476
941.184
915.893
890.603
865.315
840.027
814.74
789.455
764.171
738.887
713.604
688.322
663.041
637.76
612.482
587.204
561.927
536.652
511.379
486.108
460.84
435.574
410.313
385.057
359.807
334.564
309.331
284.11
258.902
233.711
208.538
183.386
158.261
133.17
108.117
83.0394
57.7954
32.7315
10.3088
4999.92
4999.88
4999.91
4999.92
4999.91
4999.91
4999.9
4999.9
4999.9
4999.9
4999.9
4999.89
4999.89
4999.89
4999.89
4999.88
4999.88
4999.88
4999.88
4999.87
4999.87
4999.87
4999.87
4999.86
4999.86
4999.86
4999.85
4999.85
4999.84
4999.82
4999.81
4999.8
4999.79
4999.78
4999.78
4999.78
4999.78
4999.78
4999.78
4999.78
4999.79
4999.79
4999.77
4999.7
4999.72
4999.53
4997.54
4991.81
4977.58
4956.62
4932.99
4903.19
4884.76
4873.16
4860.71
4845.76
4828.88
4810.69
4791.46
4771.34
4750.47
4728.97
4706.94
4684.46
4661.59
4638.39
4614.91
4591.2
4567.28
4543.19
4518.96
4494.59
4470.11
4445.53
4420.87
4396.14
4371.35
4346.52
4321.63
4296.71
4271.75
4246.76
4221.73
4196.69
4171.63
4146.56
4121.46
4096.36
4071.25
4046.13
4020.99
3995.85
3970.69
3945.53
3920.37
3895.19
3870.02
3844.85
3819.68
3794.5
3769.32
3744.14
3718.95
3693.76
3668.56
3643.36
3618.16
3592.96
3567.76
3542.57
3517.37
3492.17
3466.97
3441.77
3416.56
3391.35
3366.14
3340.94
3315.73
3290.53
3265.32
3240.12
3214.91
3189.7
3164.49
3139.28
3114.07
3088.85
3063.63
3038.41
3013.2
2987.98
2962.76
2937.54
2912.33
2887.11
2861.9
2836.68
2811.47
2786.26
2761.04
2735.83
2710.61
2685.4
2660.18
2634.96
2609.74
2584.52
2559.29
2534.07
2508.84
2483.61
2458.38
2433.14
2407.91
2382.67
2357.44
2332.2
2306.96
2281.72
2256.47
2231.22
2205.97
2180.71
2155.45
2130.18
2104.91
2079.63
2054.34
2029.05
2003.76
1978.46
1953.16
1927.85
1902.55
1877.24
1851.93
1826.62
1801.31
1776
1750.69
1725.38
1700.07
1674.77
1649.47
1624.16
1598.86
1573.56
1548.26
1522.97
1497.67
1472.37
1447.08
1421.78
1396.48
1371.19
1345.89
1320.6
1295.3
1270
1244.71
1219.41
1194.12
1168.82
1143.53
1118.23
1092.94
1067.64
1042.35
1017.06
991.765
966.474
941.183
915.894
890.605
865.318
840.031
814.743
789.458
764.173
738.889
713.606
688.324
663.043
637.763
612.484
587.206
561.929
536.655
511.382
486.111
460.842
435.577
410.315
385.058
359.806
334.56
309.323
284.094
258.877
233.671
208.479
183.3
158.136
132.994
107.872
82.6912
57.2813
32.0777
10.0491
4999.92
4999.88
4999.91
4999.92
4999.91
4999.91
4999.9
4999.9
4999.9
4999.9
4999.89
4999.89
4999.89
4999.89
4999.88
4999.88
4999.88
4999.88
4999.87
4999.87
4999.87
4999.87
4999.86
4999.86
4999.86
4999.85
4999.85
4999.84
4999.83
4999.82
4999.81
4999.8
4999.79
4999.79
4999.78
4999.78
4999.78
4999.78
4999.78
4999.78
4999.77
4999.77
4999.77
4999.77
4999.76
4999.75
4999.68
4999.37
4998.11
4993.61
4980.55
4952.28
4921.75
4897.71
4878.97
4861.36
4842.37
4822.11
4801.1
4779.51
4757.4
4734.86
4711.95
4688.73
4665.24
4641.51
4617.59
4593.5
4569.26
4544.9
4520.42
4495.85
4471.2
4446.47
4421.69
4396.85
4371.97
4347.05
4322.1
4297.11
4272.09
4247.05
4221.99
4196.91
4171.82
4146.72
4121.61
4096.49
4071.36
4046.23
4021.08
3995.92
3970.76
3945.58
3920.41
3895.24
3870.06
3844.89
3819.71
3794.54
3769.36
3744.17
3718.98
3693.78
3668.58
3643.38
3618.17
3592.97
3567.77
3542.57
3517.38
3492.18
3466.98
3441.77
3416.57
3391.36
3366.15
3340.94
3315.73
3290.53
3265.32
3240.11
3214.9
3189.7
3164.49
3139.28
3114.07
3088.85
3063.64
3038.42
3013.21
2987.99
2962.77
2937.55
2912.33
2887.12
2861.9
2836.68
2811.47
2786.25
2761.04
2735.83
2710.61
2685.4
2660.18
2634.96
2609.74
2584.52
2559.3
2534.07
2508.84
2483.61
2458.38
2433.15
2407.91
2382.67
2357.44
2332.2
2306.95
2281.71
2256.47
2231.22
2205.96
2180.71
2155.45
2130.18
2104.9
2079.63
2054.34
2029.05
2003.76
1978.46
1953.16
1927.85
1902.55
1877.24
1851.93
1826.62
1801.31
1776
1750.69
1725.38
1700.07
1674.77
1649.46
1624.16
1598.86
1573.56
1548.26
1522.97
1497.67
1472.37
1447.08
1421.78
1396.48
1371.19
1345.89
1320.6
1295.3
1270
1244.71
1219.41
1194.12
1168.82
1143.52
1118.23
1092.93
1067.64
1042.35
1017.06
991.764
966.472
941.182
915.893
890.604
865.317
840.03
814.744
789.458
764.173
738.888
713.605
688.322
663.041
637.76
612.48
587.202
561.924
536.648
511.374
486.101
460.831
435.563
410.297
385.036
359.778
334.525
309.278
284.038
258.806
233.581
208.364
183.155
157.951
132.76
107.579
82.3148
56.78
31.4865
9.82091
4999.92
4999.88
4999.91
4999.92
4999.91
4999.91
4999.9
4999.9
4999.9
4999.9
4999.89
4999.89
4999.89
4999.89
4999.88
4999.88
4999.88
4999.87
4999.87
4999.87
4999.87
4999.86
4999.86
4999.86
4999.85
4999.85
4999.84
4999.84
4999.83
4999.82
4999.82
4999.81
4999.8
4999.8
4999.79
4999.79
4999.79
4999.78
4999.78
4999.78
4999.77
4999.77
4999.77
4999.76
4999.76
4999.75
4999.73
4999.65
4999.37
4998.48
4996.17
4990.3
4973.46
4939.36
4908.66
4884.12
4860.7
4837.21
4813.58
4789.9
4766.11
4742.21
4718.18
4694.03
4669.76
4645.39
4620.91
4596.35
4571.72
4547.01
4522.25
4497.43
4472.56
4447.66
4422.71
4397.74
4372.74
4347.72
4322.67
4297.61
4272.53
4247.43
4222.32
4197.2
4172.08
4146.94
4121.81
4096.66
4071.5
4046.34
4021.18
3996.01
3970.84
3945.66
3920.48
3895.3
3870.12
3844.94
3819.76
3794.57
3769.39
3744.2
3719
3693.8
3668.6
3643.39
3618.19
3592.99
3567.79
3542.59
3517.39
3492.19
3466.99
3441.79
3416.58
3391.37
3366.16
3340.95
3315.74
3290.53
3265.31
3240.11
3214.9
3189.69
3164.48
3139.28
3114.07
3088.86
3063.65
3038.43
3013.22
2988
2962.78
2937.56
2912.34
2887.12
2861.9
2836.68
2811.47
2786.25
2761.04
2735.83
2710.61
2685.4
2660.19
2634.97
2609.75
2584.53
2559.31
2534.08
2508.85
2483.62
2458.39
2433.15
2407.91
2382.67
2357.44
2332.2
2306.95
2281.71
2256.46
2231.22
2205.96
2180.71
2155.44
2130.18
2104.9
2079.63
2054.34
2029.05
2003.76
1978.46
1953.16
1927.86
1902.55
1877.24
1851.93
1826.62
1801.31
1776
1750.69
1725.38
1700.07
1674.77
1649.46
1624.16
1598.86
1573.56
1548.26
1522.97
1497.67
1472.37
1447.08
1421.78
1396.48
1371.19
1345.89
1320.59
1295.3
1270
1244.71
1219.41
1194.12
1168.82
1143.52
1118.23
1092.93
1067.64
1042.35
1017.06
991.762
966.471
941.18
915.891
890.603
865.316
840.029
814.743
789.457
764.171
738.886
713.602
688.318
663.036
637.754
612.473
587.193
561.914
536.636
511.359
486.083
460.809
435.536
410.265
384.997
359.732
334.469
309.211
283.957
258.707
233.462
208.221
182.981
157.744
132.512
107.284
81.9561
56.3282
30.9757
9.62329
4999.92
4999.88
4999.9
4999.92
4999.91
4999.91
4999.9
4999.9
4999.9
4999.9
4999.89
4999.89
4999.89
4999.88
4999.88
4999.88
4999.88
4999.87
4999.87
4999.87
4999.86
4999.86
4999.86
4999.85
4999.85
4999.84
4999.84
4999.83
4999.83
4999.82
4999.82
4999.81
4999.81
4999.8
4999.8
4999.79
4999.79
4999.78
4999.78
4999.78
4999.77
4999.77
4999.77
4999.76
4999.76
4999.75
4999.73
4999.7
4999.59
4999.32
4998.56
4996.31
4989.54
4969.22
4936.92
4906.21
4878.58
4852.24
4826.31
4800.64
4775.22
4749.96
4724.8
4699.7
4674.63
4649.58
4624.53
4599.48
4574.42
4549.35
4524.27
4499.18
4474.08
4448.98
4423.86
4398.74
4373.61
4348.47
4323.32
4298.17
4273.02
4247.86
4222.7
4197.54
4172.37
4147.2
4122.02
4096.84
4071.66
4046.48
4021.3
3996.12
3970.93
3945.74
3920.55
3895.37
3870.18
3844.99
3819.8
3794.61
3769.42
3744.22
3719.02
3693.82
3668.62
3643.41
3618.21
3593.01
3567.8
3542.61
3517.41
3492.21
3467.01
3441.8
3416.59
3391.38
3366.17
3340.95
3315.74
3290.53
3265.31
3240.1
3214.9
3189.69
3164.48
3139.28
3114.07
3088.86
3063.65
3038.44
3013.23
2988.01
2962.79
2937.56
2912.34
2887.12
2861.9
2836.68
2811.46
2786.25
2761.04
2735.83
2710.62
2685.4
2660.19
2634.98
2609.76
2584.54
2559.32
2534.09
2508.86
2483.63
2458.39
2433.15
2407.91
2382.67
2357.43
2332.19
2306.95
2281.71
2256.46
2231.21
2205.96
2180.7
2155.44
2130.18
2104.9
2079.63
2054.34
2029.05
2003.76
1978.46
1953.16
1927.86
1902.55
1877.24
1851.93
1826.62
1801.31
1776
1750.69
1725.38
1700.07
1674.77
1649.46
1624.16
1598.86
1573.56
1548.26
1522.97
1497.67
1472.37
1447.07
1421.78
1396.48
1371.19
1345.89
1320.59
1295.3
1270
1244.71
1219.41
1194.11
1168.82
1143.52
1118.23
1092.93
1067.64
1042.35
1017.05
991.76
966.469
941.179
915.89
890.601
865.314
840.027
814.74
789.454
764.168
738.882
713.597
688.312
663.028
637.745
612.462
587.18
561.899
536.618
511.338
486.059
460.78
435.502
410.225
384.949
359.675
334.402
309.132
283.864
258.598
233.334
208.071
182.806
157.539
132.275
107.012
81.6377
55.9424
30.5499
9.45573
4999.91
4999.87
4999.9
4999.92
4999.91
4999.9
4999.9
4999.9
4999.9
4999.89
4999.89
4999.89
4999.89
4999.88
4999.88
4999.88
4999.87
4999.87
4999.87
4999.86
4999.86
4999.86
4999.85
4999.85
4999.85
4999.84
4999.84
4999.83
4999.83
4999.82
4999.82
4999.81
4999.81
4999.8
4999.8
4999.79
4999.79
4999.79
4999.78
4999.78
4999.77
4999.77
4999.77
4999.76
4999.76
4999.75
4999.74
4999.72
4999.67
4999.52
4999.12
4998.03
4994.64
4982.28
4954.83
4922.72
4892.87
4864.73
4837.26
4810.19
4783.51
4757.16
4731.05
4705.13
4679.35
4653.68
4628.09
4602.58
4577.12
4551.7
4526.31
4500.96
4475.63
4450.32
4425.04
4399.76
4374.5
4349.25
4324
4298.76
4273.53
4248.31
4223.09
4197.88
4172.67
4147.45
4122.24
4097.04
4071.82
4046.62
4021.43
3996.23
3971.03
3945.83
3920.64
3895.44
3870.24
3845.04
3819.84
3794.64
3769.44
3744.24
3719.04
3693.84
3668.64
3643.43
3618.23
3593.03
3567.82
3542.62
3517.42
3492.22
3467.02
3441.81
3416.6
3391.39
3366.18
3340.96
3315.75
3290.53
3265.32
3240.11
3214.9
3189.69
3164.49
3139.28
3114.08
3088.87
3063.66
3038.45
3013.23
2988.01
2962.79
2937.56
2912.34
2887.12
2861.9
2836.68
2811.46
2786.25
2761.04
2735.83
2710.62
2685.41
2660.2
2634.99
2609.77
2584.55
2559.33
2534.1
2508.87
2483.63
2458.39
2433.16
2407.92
2382.67
2357.43
2332.19
2306.95
2281.7
2256.46
2231.21
2205.96
2180.7
2155.44
2130.17
2104.9
2079.62
2054.34
2029.06
2003.76
1978.47
1953.17
1927.86
1902.55
1877.24
1851.93
1826.62
1801.31
1776
1750.69
1725.38
1700.07
1674.77
1649.47
1624.16
1598.86
1573.56
1548.26
1522.97
1497.67
1472.37
1447.07
1421.78
1396.48
1371.19
1345.89
1320.59
1295.3
1270
1244.71
1219.41
1194.11
1168.82
1143.52
1118.23
1092.93
1067.64
1042.34
1017.05
991.759
966.468
941.178
915.888
890.599
865.311
840.024
814.737
789.451
764.164
738.877
713.591
688.305
663.02
637.735
612.45
587.166
561.882
536.599
511.315
486.032
460.748
435.465
410.181
384.898
359.616
334.333
309.052
283.771
258.491
233.21
207.929
182.644
157.355
132.067
106.777
81.3701
55.626
30.2062
9.31674
4999.91
4999.87
4999.9
4999.92
4999.91
4999.9
4999.9
4999.9
4999.9
4999.89
4999.89
4999.89
4999.89
4999.88
4999.88
4999.88
4999.87
4999.87
4999.87
4999.86
4999.86
4999.86
4999.85
4999.85
4999.85
4999.84
4999.84
4999.83
4999.83
4999.82
4999.82
4999.81
4999.81
4999.8
4999.8
4999.8
4999.79
4999.79
4999.78
4999.78
4999.78
4999.77
4999.77
4999.76
4999.76
4999.75
4999.74
4999.73
4999.7
4999.6
4999.34
4998.56
4996.12
4987.34
4964.3
4933.36
4902.9
4873.94
4845.67
4817.78
4790.31
4763.21
4736.41
4709.86
4683.52
4657.34
4631.31
4605.4
4579.59
4553.86
4528.21
4502.62
4477.08
4451.59
4426.14
4400.73
4375.34
4349.98
4324.64
4299.32
4274.02
4248.74
4223.47
4198.21
4172.95
4147.7
4122.46
4097.22
4071.99
4046.77
4021.55
3996.34
3971.13
3945.92
3920.71
3895.5
3870.29
3845.08
3819.88
3794.67
3769.47
3744.27
3719.06
3693.86
3668.66
3643.45
3618.25
3593.05
3567.84
3542.64
3517.44
3492.24
3467.03
3441.82
3416.61
3391.4
3366.18
3340.97
3315.75
3290.54
3265.33
3240.12
3214.91
3189.7
3164.5
3139.29
3114.09
3088.88
3063.66
3038.45
3013.23
2988.01
2962.79
2937.56
2912.34
2887.12
2861.89
2836.68
2811.46
2786.25
2761.04
2735.83
2710.63
2685.42
2660.21
2635
2609.78
2584.56
2559.33
2534.11
2508.87
2483.64
2458.4
2433.16
2407.92
2382.67
2357.43
2332.19
2306.94
2281.7
2256.45
2231.2
2205.95
2180.7
2155.44
2130.17
2104.9
2079.62
2054.34
2029.05
2003.76
1978.47
1953.17
1927.86
1902.56
1877.25
1851.94
1826.62
1801.31
1776
1750.69
1725.38
1700.08
1674.77
1649.47
1624.16
1598.86
1573.56
1548.26
1522.97
1497.67
1472.37
1447.07
1421.78
1396.48
1371.18
1345.89
1320.59
1295.3
1270
1244.7
1219.41
1194.11
1168.82
1143.52
1118.23
1092.93
1067.64
1042.34
1017.05
991.758
966.467
941.176
915.886
890.598
865.309
840.021
814.734
789.447
764.16
738.872
713.585
688.298
663.011
637.725
612.438
587.152
561.866
536.579
511.292
486.005
460.717
435.428
410.139
384.85
359.56
334.269
308.978
283.686
258.394
233.101
207.805
182.505
157.199
131.893
106.585
81.1554
55.3772
29.9389
9.2053
4999.91
4999.87
4999.9
4999.92
4999.91
4999.9
4999.9
4999.9
4999.9
4999.89
4999.89
4999.89
4999.88
4999.88
4999.88
4999.88
4999.87
4999.87
4999.87
4999.86
4999.86
4999.86
4999.85
4999.85
4999.84
4999.84
4999.84
4999.83
4999.83
4999.82
4999.82
4999.81
4999.81
4999.81
4999.8
4999.8
4999.79
4999.79
4999.78
4999.78
4999.78
4999.77
4999.77
4999.76
4999.76
4999.75
4999.75
4999.73
4999.71
4999.63
4999.41
4998.75
4996.63
4989.21
4969.03
4939.63
4909.38
4880.22
4851.64
4823.37
4795.45
4767.89
4740.64
4713.65
4686.9
4660.35
4633.98
4607.76
4581.68
4555.7
4529.83
4504.04
4478.33
4452.68
4427.1
4401.57
4376.08
4350.62
4325.2
4299.81
4274.45
4249.11
4223.8
4198.49
4173.2
4147.92
4122.65
4097.39
4072.14
4046.9
4021.67
3996.44
3971.22
3945.99
3920.78
3895.56
3870.34
3845.12
3819.91
3794.7
3769.49
3744.29
3719.08
3693.88
3668.67
3643.47
3618.26
3593.06
3567.86
3542.65
3517.45
3492.24
3467.04
3441.83
3416.62
3391.4
3366.19
3340.98
3315.76
3290.55
3265.34
3240.13
3214.92
3189.72
3164.51
3139.3
3114.09
3088.88
3063.66
3038.45
3013.23
2988
2962.78
2937.56
2912.33
2887.11
2861.89
2836.68
2811.46
2786.25
2761.05
2735.84
2710.63
2685.43
2660.22
2635
2609.79
2584.57
2559.34
2534.11
2508.88
2483.64
2458.4
2433.16
2407.92
2382.67
2357.43
2332.18
2306.94
2281.7
2256.45
2231.2
2205.95
2180.69
2155.43
2130.17
2104.9
2079.62
2054.34
2029.05
2003.76
1978.47
1953.17
1927.86
1902.56
1877.25
1851.94
1826.63
1801.31
1776
1750.69
1725.38
1700.08
1674.77
1649.47
1624.16
1598.86
1573.56
1548.26
1522.97
1497.67
1472.37
1447.07
1421.78
1396.48
1371.18
1345.89
1320.59
1295.3
1270
1244.7
1219.41
1194.11
1168.82
1143.52
1118.22
1092.93
1067.64
1042.34
1017.05
991.757
966.467
941.175
915.885
890.596
865.307
840.019
814.731
789.443
764.155
738.867
713.579
688.291
663.003
637.715
612.427
587.139
561.851
536.562
511.272
485.981
460.69
435.397
410.103
384.808
359.512
334.214
308.916
283.616
258.315
233.012
207.705
182.393
157.076
131.757
106.437
80.9926
55.1914
29.7408
9.12025
4999.91
4999.87
4999.9
4999.92
4999.91
4999.9
4999.9
4999.9
4999.9
4999.89
4999.89
4999.89
4999.88
4999.88
4999.88
4999.88
4999.87
4999.87
4999.87
4999.86
4999.86
4999.86
4999.85
4999.85
4999.84
4999.84
4999.84
4999.83
4999.83
4999.82
4999.82
4999.81
4999.81
4999.81
4999.8
4999.8
4999.79
4999.79
4999.78
4999.78
4999.78
4999.77
4999.77
4999.76
4999.76
4999.75
4999.75
4999.74
4999.71
4999.64
4999.43
4998.8
4996.78
4989.91
4971.44
4943.21
4913.34
4884.25
4855.59
4827.16
4799.02
4771.2
4743.68
4716.42
4689.41
4662.61
4636
4609.56
4583.27
4557.12
4531.08
4505.14
4479.3
4453.54
4427.85
4402.23
4376.66
4351.14
4325.65
4300.21
4274.8
4249.41
4224.06
4198.72
4173.41
4148.1
4122.81
4097.53
4072.26
4047
4021.76
3996.52
3971.29
3946.06
3920.83
3895.6
3870.38
3845.16
3819.94
3794.72
3769.51
3744.31
3719.1
3693.89
3668.69
3643.48
3618.28
3593.07
3567.87
3542.66
3517.45
3492.25
3467.04
3441.83
3416.62
3391.41
3366.2
3340.99
3315.78
3290.57
3265.36
3240.15
3214.94
3189.73
3164.52
3139.31
3114.09
3088.88
3063.66
3038.44
3013.22
2988
2962.77
2937.55
2912.33
2887.11
2861.89
2836.68
2811.47
2786.26
2761.05
2735.85
2710.64
2685.43
2660.22
2635.01
2609.79
2584.57
2559.35
2534.11
2508.88
2483.64
2458.4
2433.16
2407.92
2382.67
2357.43
2332.18
2306.94
2281.69
2256.45
2231.2
2205.94
2180.69
2155.43
2130.16
2104.89
2079.62
2054.34
2029.05
2003.76
1978.47
1953.17
1927.86
1902.56
1877.25
1851.94
1826.63
1801.31
1776
1750.69
1725.39
1700.08
1674.77
1649.47
1624.16
1598.86
1573.56
1548.26
1522.96
1497.67
1472.37
1447.07
1421.78
1396.48
1371.18
1345.89
1320.59
1295.3
1270
1244.7
1219.41
1194.11
1168.81
1143.52
1118.22
1092.93
1067.64
1042.34
1017.05
991.756
966.466
941.174
915.884
890.595
865.306
840.017
814.729
789.441
764.152
738.864
713.575
688.286
662.997
637.708
612.419
587.129
561.839
536.548
511.256
485.963
460.669
435.373
410.076
384.777
359.476
334.173
308.869
283.563
258.256
232.946
207.632
182.313
156.987
131.661
106.333
80.8791
55.0634
29.6049
9.0604
4999.91
4999.87
4999.9
4999.92
4999.91
4999.9
4999.9
4999.9
4999.9
4999.89
4999.89
4999.89
4999.88
4999.88
4999.88
4999.87
4999.87
4999.87
4999.87
4999.86
4999.86
4999.85
4999.85
4999.85
4999.84
4999.84
4999.84
4999.83
4999.83
4999.82
4999.82
4999.81
4999.81
4999.81
4999.8
4999.8
4999.79
4999.79
4999.78
4999.78
4999.78
4999.77
4999.77
4999.76
4999.76
4999.75
4999.75
4999.74
4999.71
4999.65
4999.44
4998.82
4996.83
4990.21
4972.69
4945.18
4915.58
4886.58
4857.92
4829.43
4801.19
4773.24
4745.56
4718.16
4690.99
4664.04
4637.28
4610.71
4584.29
4558.02
4531.88
4505.86
4479.93
4454.1
4428.35
4402.66
4377.04
4351.47
4325.95
4300.47
4275.02
4249.62
4224.24
4198.88
4173.54
4148.22
4122.91
4097.62
4072.34
4047.08
4021.82
3996.58
3971.34
3946.1
3920.87
3895.64
3870.41
3845.19
3819.96
3794.75
3769.53
3744.32
3719.11
3693.9
3668.7
3643.49
3618.28
3593.08
3567.87
3542.66
3517.45
3492.25
3467.04
3441.83
3416.62
3391.41
3366.21
3341
3315.79
3290.59
3265.38
3240.17
3214.95
3189.74
3164.53
3139.31
3114.09
3088.87
3063.65
3038.43
3013.21
2987.99
2962.77
2937.55
2912.33
2887.11
2861.9
2836.68
2811.47
2786.27
2761.06
2735.85
2710.65
2685.44
2660.23
2635.01
2609.8
2584.57
2559.35
2534.12
2508.88
2483.64
2458.4
2433.16
2407.92
2382.67
2357.43
2332.18
2306.94
2281.69
2256.44
2231.19
2205.94
2180.69
2155.43
2130.16
2104.89
2079.62
2054.34
2029.05
2003.76
1978.46
1953.16
1927.86
1902.56
1877.25
1851.94
1826.63
1801.32
1776
1750.69
1725.39
1700.08
1674.77
1649.47
1624.17
1598.86
1573.56
1548.26
1522.96
1497.67
1472.37
1447.07
1421.78
1396.48
1371.18
1345.89
1320.59
1295.3
1270
1244.7
1219.41
1194.11
1168.81
1143.52
1118.22
1092.93
1067.64
1042.34
1017.05
991.757
966.465
941.174
915.883
890.594
865.305
840.016
814.727
789.439
764.15
738.861
713.572
688.283
662.993
637.703
612.413
587.123
561.831
536.539
511.246
485.952
460.656
435.358
410.058
384.757
359.453
334.148
308.841
283.531
258.22
232.906
207.588
182.264
156.934
131.604
106.272
80.8124
54.9886
29.5259
9.02485
4999.91
4999.87
4999.9
4999.92
4999.91
4999.9
4999.9
4999.9
4999.9
4999.89
4999.89
4999.89
4999.88
4999.88
4999.88
4999.87
4999.87
4999.87
4999.86
4999.86
4999.86
4999.85
4999.85
4999.85
4999.84
4999.84
4999.84
4999.83
4999.83
4999.82
4999.82
4999.81
4999.81
4999.81
4999.8
4999.8
4999.79
4999.79
4999.78
4999.78
4999.78
4999.77
4999.77
4999.76
4999.76
4999.75
4999.75
4999.74
4999.71
4999.65
4999.45
4998.83
4996.86
4990.39
4973.33
4946.13
4916.6
4887.59
4858.91
4830.38
4802.08
4774.07
4746.33
4718.86
4691.63
4664.61
4637.8
4611.17
4584.71
4558.39
4532.21
4506.15
4480.2
4454.33
4428.55
4402.85
4377.2
4351.61
4326.07
4300.58
4275.12
4249.7
4224.31
4198.95
4173.6
4148.27
4122.96
4097.66
4072.39
4047.11
4021.85
3996.61
3971.36
3946.13
3920.89
3895.66
3870.43
3845.21
3819.98
3794.76
3769.54
3744.33
3719.12
3693.91
3668.7
3643.5
3618.29
3593.08
3567.87
3542.66
3517.45
3492.24
3467.04
3441.83
3416.62
3391.42
3366.21
3341.01
3315.81
3290.6
3265.39
3240.18
3214.96
3189.75
3164.53
3139.31
3114.09
3088.87
3063.65
3038.43
3013.2
2987.98
2962.76
2937.55
2912.33
2887.11
2861.9
2836.69
2811.48
2786.27
2761.07
2735.86
2710.65
2685.44
2660.23
2635.02
2609.8
2584.57
2559.35
2534.12
2508.88
2483.64
2458.4
2433.16
2407.92
2382.67
2357.43
2332.18
2306.94
2281.69
2256.44
2231.19
2205.94
2180.68
2155.42
2130.16
2104.89
2079.61
2054.33
2029.05
2003.76
1978.46
1953.16
1927.86
1902.55
1877.25
1851.94
1826.63
1801.32
1776.01
1750.7
1725.39
1700.08
1674.77
1649.47
1624.17
1598.86
1573.56
1548.26
1522.96
1497.67
1472.37
1447.07
1421.78
1396.48
1371.18
1345.89
1320.59
1295.29
1270
1244.7
1219.41
1194.11
1168.81
1143.52
1118.22
1092.93
1067.64
1042.34
1017.05
991.757
966.465
941.173
915.883
890.594
865.305
840.016
814.727
789.439
764.15
738.861
713.571
688.282
662.992
637.702
612.412
587.121
561.829
536.537
511.243
485.948
460.651
435.353
410.053
384.75
359.446
334.139
308.831
283.52
258.208
232.893
207.573
182.248
156.917
131.585
106.251
80.7905
54.9641
29.5
9.01312
4999.91
4999.87
4999.9
4999.92
4999.91
4999.9
4999.9
4999.9
4999.9
4999.89
4999.89
4999.89
4999.88
4999.88
4999.88
4999.87
4999.87
4999.87
4999.87
4999.86
4999.86
4999.85
4999.85
4999.85
4999.84
4999.84
4999.84
4999.83
4999.83
4999.82
4999.82
4999.81
4999.81
4999.81
4999.8
4999.8
4999.79
4999.79
4999.78
4999.78
4999.78
4999.77
4999.77
4999.76
4999.76
4999.75
4999.75
4999.74
4999.72
4999.65
4999.46
4998.85
4996.9
4990.52
4973.53
4946.25
4916.52
4887.37
4858.62
4830.05
4801.73
4773.72
4745.99
4718.53
4691.32
4664.32
4637.54
4610.94
4584.5
4558.21
4532.06
4506.02
4480.08
4454.23
4428.47
4402.77
4377.14
4351.56
4326.03
4300.54
4275.09
4249.68
4224.29
4198.93
4173.58
4148.26
4122.95
4097.65
4072.38
4047.11
4021.85
3996.61
3971.37
3946.13
3920.9
3895.67
3870.44
3845.21
3819.99
3794.77
3769.55
3744.33
3719.12
3693.91
3668.71
3643.5
3618.29
3593.08
3567.87
3542.66
3517.45
3492.24
3467.03
3441.83
3416.62
3391.42
3366.22
3341.02
3315.81
3290.61
3265.4
3240.18
3214.97
3189.75
3164.53
3139.31
3114.08
3088.86
3063.64
3038.42
3013.2
2987.98
2962.76
2937.55
2912.33
2887.12
2861.91
2836.7
2811.49
2786.28
2761.07
2735.86
2710.65
2685.44
2660.23
2635.01
2609.79
2584.57
2559.34
2534.11
2508.88
2483.64
2458.4
2433.16
2407.92
2382.67
2357.43
2332.18
2306.94
2281.69
2256.44
2231.19
2205.94
2180.68
2155.42
2130.16
2104.88
2079.61
2054.33
2029.04
2003.75
1978.46
1953.16
1927.86
1902.55
1877.24
1851.94
1826.63
1801.32
1776.01
1750.7
1725.39
1700.08
1674.77
1649.47
1624.17
1598.86
1573.56
1548.26
1522.96
1497.67
1472.37
1447.07
1421.77
1396.48
1371.18
1345.89
1320.59
1295.29
1270
1244.7
1219.41
1194.11
1168.81
1143.52
1118.22
1092.93
1067.64
1042.34
1017.05
991.756
966.465
941.174
915.884
890.595
865.305
840.017
814.729
789.44
764.151
738.862
713.573
688.283
662.994
637.704
612.414
587.123
561.832
536.54
511.247
485.952
460.656
435.358
410.058
384.757
359.453
334.148
308.841
283.531
258.22
232.906
207.588
182.265
156.935
131.604
106.272
80.8128
54.9889
29.526
9.02493
4999.91
4999.87
4999.9
4999.92
4999.91
4999.9
4999.9
4999.9
4999.9
4999.89
4999.89
4999.89
4999.88
4999.88
4999.88
4999.88
4999.87
4999.87
4999.87
4999.86
4999.86
4999.85
4999.85
4999.85
4999.84
4999.84
4999.84
4999.83
4999.83
4999.82
4999.82
4999.81
4999.81
4999.81
4999.8
4999.8
4999.79
4999.79
4999.78
4999.78
4999.78
4999.77
4999.77
4999.76
4999.76
4999.75
4999.75
4999.74
4999.71
4999.65
4999.46
4998.85
4996.91
4990.54
4973.13
4945.31
4915.14
4885.77
4856.93
4828.35
4800.07
4772.12
4744.49
4717.14
4690.04
4663.17
4636.5
4610.01
4583.68
4557.48
4531.41
4505.45
4479.57
4453.79
4428.08
4402.43
4376.85
4351.31
4325.81
4300.35
4274.93
4249.53
4224.17
4198.82
4173.49
4148.18
4122.88
4097.6
4072.33
4047.07
4021.82
3996.58
3971.34
3946.11
3920.88
3895.65
3870.42
3845.2
3819.98
3794.76
3769.54
3744.33
3719.12
3693.92
3668.71
3643.5
3618.29
3593.08
3567.87
3542.66
3517.45
3492.24
3467.03
3441.83
3416.62
3391.42
3366.22
3341.02
3315.82
3290.61
3265.4
3240.18
3214.97
3189.75
3164.52
3139.3
3114.08
3088.86
3063.64
3038.42
3013.2
2987.98
2962.77
2937.55
2912.34
2887.13
2861.91
2836.7
2811.49
2786.28
2761.07
2735.86
2710.65
2685.44
2660.23
2635.01
2609.79
2584.57
2559.34
2534.11
2508.88
2483.64
2458.4
2433.16
2407.92
2382.68
2357.43
2332.19
2306.94
2281.69
2256.44
2231.19
2205.94
2180.68
2155.42
2130.15
2104.88
2079.6
2054.32
2029.04
2003.75
1978.45
1953.16
1927.85
1902.55
1877.24
1851.93
1826.63
1801.32
1776.01
1750.7
1725.39
1700.08
1674.78
1649.47
1624.17
1598.87
1573.56
1548.26
1522.96
1497.67
1472.37
1447.07