/*--------------------------------*- C++ -*----------------------------------*\
| =========                 |                                                 |
| \\      /  F ield         | OpenFOAM: The Open Source CFD Toolbox           |
|  \\    /   O peration     | Version:  2406                                  |
|   \\  /    A nd           | Website:  www.openfoam.com                      |
|    \\/     M anipulation  |                                                 |
\*---------------------------------------------------------------------------*/
FoamFile
{
    version     2.0;
    format      ascii;
    arch        "LSB;label=32;scalar=64";
    class       surfaceScalarField;
    location    "0.1";
    object      phi;
}
// * * * * * * * * * * * * * * * * * * * * * * * * * * * * * * * * * * * * * //

dimensions      [0 3 -1 0 0 0 0];

oriented        oriented;

internalField   nonuniform List<scalar> 
12225
(
1.53734e-07
3.65463e-09
1.44301e-07
9.43281e-09
1.35053e-07
9.26699e-09
1.27604e-07
7.45392e-09
1.20889e-07
6.70871e-09
1.14384e-07
6.48701e-09
1.08365e-07
6.00608e-09
1.03072e-07
5.28571e-09
9.84698e-08
4.59899e-09
9.4419e-08
4.04988e-09
9.08038e-08
3.61562e-09
8.75328e-08
3.27214e-09
8.45148e-08
3.01934e-09
8.16572e-08
2.85896e-09
7.88738e-08
2.78461e-09
7.60875e-08
2.78703e-09
7.32275e-08
2.86018e-09
7.02237e-08
3.00358e-09
6.70006e-08
3.22236e-09
6.34732e-08
3.52618e-09
5.95443e-08
3.92723e-09
5.5104e-08
4.4382e-09
5.00288e-08
5.07213e-09
4.41779e-08
5.84644e-09
3.73769e-08
6.79447e-09
2.93981e-08
7.97006e-09
2.00054e-08
9.38061e-09
9.79629e-09
1.01958e-08
2.65605e-09
7.12836e-09
5.03463e-09
-2.37862e-09
5.86751e-09
-8.32587e-10
7.57892e-09
-1.71072e-09
8.71566e-09
-1.13601e-09
8.86303e-09
-1.46674e-10
8.51542e-09
3.47813e-10
8.97816e-09
-4.62978e-10
1.02528e-08
-1.27513e-09
1.20195e-08
-1.76725e-09
1.36977e-08
-1.67881e-09
1.51125e-08
-1.41587e-09
1.62549e-08
-1.1437e-09
1.7117e-08
-8.63141e-10
1.78582e-08
-7.42062e-10
1.88267e-08
-9.68981e-10
2.0143e-08
-1.31729e-09
2.16508e-08
-1.50997e-09
2.30736e-08
-1.4262e-09
2.4298e-08
-1.22737e-09
2.5412e-08
-1.11529e-09
2.65438e-08
-1.13211e-09
2.77191e-08
-1.17519e-09
2.88949e-08
-1.17576e-09
3.00217e-08
-1.12735e-09
3.10759e-08
-1.05608e-09
3.20433e-08
-9.69681e-10
3.29148e-08
-8.73919e-10
3.36874e-08
-7.74355e-10
3.4364e-08
-6.77508e-10
3.49516e-08
-5.87604e-10
3.54588e-08
-5.06685e-10
3.58951e-08
-4.35483e-10
3.62697e-08
-3.73819e-10
3.65911e-08
-3.20702e-10
3.68663e-08
-2.74877e-10
3.7102e-08
-2.35621e-10
3.73041e-08
-2.02168e-10
3.74775e-08
-1.73629e-10
3.76266e-08
-1.49303e-10
3.7755e-08
-1.2856e-10
3.78655e-08
-1.10774e-10
3.79609e-08
-9.55624e-11
3.80433e-08
-8.25422e-11
3.81145e-08
-7.13935e-11
3.81761e-08
-6.18697e-11
3.82294e-08
-5.36386e-11
3.82755e-08
-4.64829e-11
3.83155e-08
-4.02509e-11
3.83501e-08
-3.47766e-11
3.83799e-08
-2.99869e-11
3.84057e-08
-2.5917e-11
3.84282e-08
-2.25236e-11
3.84478e-08
-1.96565e-11
3.84649e-08
-1.71206e-11
3.84799e-08
-1.48961e-11
3.84929e-08
-1.29755e-11
3.85043e-08
-1.13319e-11
3.85142e-08
-9.95547e-12
3.85229e-08
-8.67902e-12
3.85303e-08
-7.51896e-12
3.85369e-08
-6.58154e-12
3.85426e-08
-5.78068e-12
3.85477e-08
-5.0089e-12
3.85521e-08
-4.35609e-12
3.85559e-08
-3.79976e-12
3.85593e-08
-3.32564e-12
3.85622e-08
-2.96406e-12
3.85649e-08
-2.68685e-12
3.85672e-08
-2.38416e-12
3.85692e-08
-2.06379e-12
3.8571e-08
-1.81625e-12
3.85725e-08
-1.56307e-12
3.85739e-08
-1.38258e-12
3.85752e-08
-1.20433e-12
3.85764e-08
-1.10066e-12
3.85775e-08
-9.803e-13
3.85784e-08
-7.94159e-13
3.85792e-08
-6.29121e-13
3.858e-08
-7.3879e-13
3.85806e-08
-5.00671e-13
3.85813e-08
-6.01007e-13
3.85818e-08
-4.15255e-13
3.85821e-08
-3.22774e-13
3.85825e-08
-2.95057e-13
3.85828e-08
-2.92697e-13
3.85832e-08
-2.88037e-13
3.85833e-08
-1.02644e-13
3.85834e-08
-5.73296e-14
3.85835e-08
-3.28905e-14
3.85836e-08
-6.90739e-14
3.85836e-08
-6.99904e-14
3.85837e-08
-7.78357e-14
3.85838e-08
-9.16265e-14
3.85839e-08
-1.09073e-13
3.8584e-08
-1.18054e-13
3.85841e-08
-9.76103e-14
3.85843e-08
-1.62814e-13
3.85845e-08
-1.30814e-13
3.85847e-08
-8.92612e-14
3.85848e-08
-8.79862e-14
3.85849e-08
-1.1993e-13
3.8585e-08
-1.26473e-13
3.85852e-08
-1.2971e-13
3.85852e-08
-1.25863e-13
3.85853e-08
-1.21481e-13
3.85853e-08
-1.24046e-13
3.85854e-08
-1.09131e-13
3.85854e-08
-7.34244e-14
3.85853e-08
-3.80503e-14
3.85852e-08
2.59882e-14
3.85853e-08
-8.07566e-14
3.85853e-08
-3.50737e-14
3.85854e-08
-5.09475e-14
3.85854e-08
-3.53156e-14
3.85855e-08
-5.26206e-14
3.85856e-08
-6.55959e-14
3.85857e-08
-7.68231e-14
3.85858e-08
-3.22635e-14
3.8586e-08
-1.53384e-13
3.85862e-08
-1.34517e-13
3.85864e-08
-1.36079e-13
3.85866e-08
-1.23146e-13
3.85868e-08
-1.19575e-13
3.8587e-08
-1.30365e-13
3.85872e-08
-1.44609e-13
3.85874e-08
-1.39432e-13
3.85876e-08
-1.17435e-13
3.85879e-08
-1.89201e-13
3.85882e-08
-1.79435e-13
3.85885e-08
-1.75345e-13
3.85887e-08
-1.85137e-13
3.8589e-08
-1.96907e-13
3.85893e-08
-2.08603e-13
3.85896e-08
-2.16203e-13
3.85899e-08
-2.21486e-13
3.85902e-08
-2.25163e-13
3.85905e-08
-2.16687e-13
3.85907e-08
-2.00462e-13
3.8591e-08
-1.84847e-13
3.85912e-08
-1.96154e-13
3.85914e-08
-2.18349e-13
3.85916e-08
-1.98591e-13
3.85917e-08
-1.47204e-13
3.85919e-08
-1.53651e-13
3.8592e-08
-1.81459e-13
3.85921e-08
-1.59418e-13
3.85922e-08
-1.35932e-13
3.85923e-08
-1.03372e-13
3.85923e-08
-5.74472e-14
3.85924e-08
-1.07326e-13
3.85925e-08
-1.24248e-13
3.85925e-08
-8.38624e-14
3.85925e-08
-5.17281e-15
3.85924e-08
2.74602e-14
3.85924e-08
4.295e-14
3.85924e-08
2.30578e-14
3.85924e-08
-1.71865e-14
3.85924e-08
-4.26828e-14
3.85924e-08
1.20393e-14
3.85924e-08
4.02821e-15
3.85923e-08
1.21974e-13
3.85921e-08
1.65135e-13
3.8592e-08
1.04518e-13
3.85919e-08
9.19452e-14
3.85919e-08
4.5447e-14
3.85918e-08
5.00004e-14
3.85917e-08
6.94266e-14
3.85916e-08
9.07888e-14
3.85914e-08
1.28889e-13
3.85912e-08
1.45539e-13
3.85911e-08
9.0843e-14
3.8591e-08
2.63752e-14
3.85908e-08
8.40746e-14
3.85906e-08
1.20736e-13
3.85905e-08
4.32164e-14
3.85904e-08
2.2634e-14
3.85903e-08
3.84405e-14
3.85901e-08
4.29669e-14
3.859e-08
2.91712e-14
3.85899e-08
4.78532e-14
3.85897e-08
1.20142e-13
3.85895e-08
1.13259e-13
3.85893e-08
1.35758e-13
3.85891e-08
1.21825e-13
3.85889e-08
1.19047e-13
3.85887e-08
1.57536e-13
3.85885e-08
2.04298e-13
3.85882e-08
2.65752e-13
3.85878e-08
3.37801e-13
3.85873e-08
3.99558e-13
3.85869e-08
4.6892e-13
3.85863e-08
5.64003e-13
3.85856e-08
6.82802e-13
3.85848e-08
8.11469e-13
3.85838e-08
9.59253e-13
3.85827e-08
1.14285e-12
3.85813e-08
1.36086e-12
3.85797e-08
1.62173e-12
3.85778e-08
1.93543e-12
3.85755e-08
2.31519e-12
3.85727e-08
2.77822e-12
3.85694e-08
3.34469e-12
3.85654e-08
4.04016e-12
3.85605e-08
4.89714e-12
3.85545e-08
5.95825e-12
3.85472e-08
7.27884e-12
3.85383e-08
8.93426e-12
3.85273e-08
1.10031e-11
3.85136e-08
1.35972e-11
3.84967e-08
1.68662e-11
3.84757e-08
2.09806e-11
3.84495e-08
2.61561e-11
3.84167e-08
3.26559e-11
3.83759e-08
4.08078e-11
3.83248e-08
5.10202e-11
3.82611e-08
6.36943e-11
3.8182e-08
7.9158e-11
3.80844e-08
9.7649e-11
3.79655e-08
1.18893e-10
3.78255e-08
1.40048e-10
1.46872e-10
1.75846e-07
7.84686e-10
1.81144e-07
4.14249e-09
1.8364e-07
6.78705e-09
1.83408e-07
7.68502e-09
1.82266e-07
7.84345e-09
1.80734e-07
8.00721e-09
1.78626e-07
8.10769e-09
1.75913e-07
7.99915e-09
1.72769e-07
7.74713e-09
1.69356e-07
7.46675e-09
1.65763e-07
7.21276e-09
1.62035e-07
7.00294e-09
1.58201e-07
6.85281e-09
1.54281e-07
6.77655e-09
1.50281e-07
6.78021e-09
1.46195e-07
6.86467e-09
1.4201e-07
7.03439e-09
1.37696e-07
7.30501e-09
1.33197e-07
7.70768e-09
1.2842e-07
8.29015e-09
1.2322e-07
9.11508e-09
1.17391e-07
1.02575e-08
1.1065e-07
1.1805e-08
1.02627e-07
1.38649e-08
9.28339e-08
1.65859e-08
8.06005e-08
2.0204e-08
6.49357e-08
2.50453e-08
4.47936e-08
3.03382e-08
2.85053e-08
2.3415e-08
1.70777e-08
9.04573e-09
1.08652e-08
5.37721e-09
8.81394e-09
3.36837e-10
9.73057e-09
-2.05742e-09
1.22525e-08
-2.66773e-09
1.48244e-08
-2.22259e-09
1.89306e-08
-4.56919e-09
2.28854e-08
-5.23039e-09
2.69613e-08
-5.84331e-09
3.04661e-08
-5.18307e-09
3.40145e-08
-4.96154e-09
3.85785e-08
-5.70454e-09
4.38813e-08
-6.16354e-09
4.785e-08
-4.70799e-09
5.15131e-08
-4.62932e-09
5.54707e-08
-5.27199e-09
5.95442e-08
-5.58011e-09
6.31443e-08
-5.02238e-09
6.60507e-08
-4.13155e-09
6.86763e-08
-3.73874e-09
7.13417e-08
-3.79744e-09
7.40769e-08
-3.91273e-09
7.67048e-08
-3.80888e-09
7.91366e-08
-3.56353e-09
8.13492e-08
-3.27121e-09
8.33475e-08
-2.96878e-09
8.51264e-08
-2.65212e-09
8.66885e-08
-2.33445e-09
8.80459e-08
-2.03191e-09
8.92173e-08
-1.75561e-09
9.02242e-08
-1.50985e-09
9.10876e-08
-1.29524e-09
9.1827e-08
-1.10998e-09
9.24601e-08
-9.50927e-10
9.30027e-08
-8.14901e-10
9.34677e-08
-6.98587e-10
9.38663e-08
-5.99326e-10
9.42086e-08
-5.14866e-10
9.45028e-08
-4.42867e-10
9.4756e-08
-3.81445e-10
9.49743e-08
-3.28947e-10
9.51627e-08
-2.84009e-10
9.53255e-08
-2.45432e-10
9.54664e-08
-2.12296e-10
9.55884e-08
-1.83796e-10
9.56941e-08
-1.59179e-10
9.57857e-08
-1.37939e-10
9.58652e-08
-1.19627e-10
9.5934e-08
-1.03672e-10
9.59936e-08
-8.97713e-11
9.60454e-08
-7.79175e-11
9.60903e-08
-6.7779e-11
9.61294e-08
-5.90364e-11
9.61635e-08
-5.14279e-11
9.61933e-08
-4.47626e-11
9.62191e-08
-3.89207e-11
9.62418e-08
-3.41339e-11
9.62615e-08
-2.97684e-11
9.62786e-08
-2.59184e-11
9.62938e-08
-2.27824e-11
9.63068e-08
-1.97764e-11
9.63183e-08
-1.7317e-11
9.63284e-08
-1.51365e-11
9.63373e-08
-1.31707e-11
9.6345e-08
-1.15151e-11
9.63518e-08
-1.00265e-11
9.63576e-08
-8.79243e-12
9.63627e-08
-7.85388e-12
9.63673e-08
-7.03146e-12
9.63714e-08
-6.18048e-12
9.63749e-08
-5.38519e-12
9.6378e-08
-4.79659e-12
9.63808e-08
-4.25551e-12
9.63834e-08
-3.85497e-12
9.63856e-08
-3.43301e-12
9.63876e-08
-3.04413e-12
9.63894e-08
-2.69781e-12
9.63911e-08
-2.37213e-12
9.63923e-08
-2.07667e-12
9.63937e-08
-2.08678e-12
9.63947e-08
-1.76837e-12
9.63956e-08
-1.4634e-12
9.63963e-08
-1.27083e-12
9.6397e-08
-1.09972e-12
9.63975e-08
-9.73863e-13
9.6398e-08
-9.28668e-13
9.63984e-08
-7.20869e-13
9.63988e-08
-5.5264e-13
9.63991e-08
-4.62295e-13
9.63993e-08
-3.20194e-13
9.63995e-08
-3.62152e-13
9.63997e-08
-3.20813e-13
9.63999e-08
-2.76243e-13
9.64001e-08
-2.32458e-13
9.64005e-08
-3.3503e-13
9.64007e-08
-1.49362e-13
9.64007e-08
-3.8366e-14
9.64008e-08
-1.32772e-13
9.64012e-08
-3.3841e-13
9.64014e-08
-2.18503e-13
9.64015e-08
-1.69175e-13
9.64017e-08
-2.52342e-13
9.64018e-08
-2.80025e-13
9.64019e-08
-2.97665e-13
9.6402e-08
-2.10795e-13
9.64021e-08
-3.02183e-13
9.64022e-08
-2.72802e-13
9.64023e-08
-1.34236e-13
9.64023e-08
-4.77049e-15
9.64025e-08
-3.75342e-14
9.64025e-08
3.74275e-14
9.64027e-08
-7.56115e-15
9.64027e-08
1.14195e-13
9.64028e-08
5.43995e-14
9.6403e-08
8.49819e-15
9.64032e-08
6.45181e-15
9.64034e-08
2.02224e-14
9.64037e-08
-8.08097e-14
9.64038e-08
-2.67371e-14
9.6404e-08
-8.09564e-14
9.64042e-08
-7.81625e-14
9.64045e-08
-8.94049e-14
9.64047e-08
-9.61302e-14
9.64049e-08
-1.03536e-13
9.64052e-08
-1.09578e-13
9.64055e-08
-1.29705e-13
9.64058e-08
-1.95536e-13
9.64061e-08
-1.16331e-13
9.64063e-08
-1.03009e-13
9.64065e-08
-1.00032e-13
9.64068e-08
-1.32448e-13
9.64071e-08
-1.58011e-13
9.64074e-08
-1.61966e-13
9.64077e-08
-2.02807e-13
9.6408e-08
-2.43365e-13
9.64083e-08
-2.39172e-13
9.64086e-08
-1.98227e-13
9.64088e-08
-1.71471e-13
9.6409e-08
-1.60753e-13
9.64092e-08
-1.5033e-13
9.64093e-08
-1.41315e-13
9.64095e-08
-1.47432e-13
9.64096e-08
-1.1483e-13
9.64097e-08
-7.61093e-14
9.64097e-08
-6.93618e-14
9.64097e-08
-5.15002e-14
9.64097e-08
-2.22256e-14
9.64098e-08
1.99604e-15
9.64099e-08
-1.82789e-14
9.64099e-08
-2.76111e-14
9.64099e-08
-1.4844e-14
9.64099e-08
7.31487e-14
9.641e-08
1.2409e-13
9.641e-08
1.37533e-13
9.641e-08
2.05477e-13
9.64101e-08
1.61977e-13
9.64101e-08
1.61189e-13
9.64102e-08
4.83187e-14
9.64103e-08
9.87853e-14
9.64103e-08
1.68732e-13
9.64103e-08
2.65428e-13
9.64102e-08
5.21972e-13
9.64101e-08
3.17768e-13
9.64102e-08
1.68969e-13
9.64101e-08
2.58174e-13
9.641e-08
2.8851e-13
9.64099e-08
2.62557e-13
9.64099e-08
2.33602e-13
9.64099e-08
2.56868e-13
9.64098e-08
3.19679e-13
9.64097e-08
2.60517e-13
9.64095e-08
2.48432e-13
9.64094e-08
2.48711e-13
9.64092e-08
3.07812e-13
9.6409e-08
3.26235e-13
9.64087e-08
3.15634e-13
9.64084e-08
3.20456e-13
9.64081e-08
3.50662e-13
9.64078e-08
3.75734e-13
9.64074e-08
4.19725e-13
9.64071e-08
4.53514e-13
9.64067e-08
5.29961e-13
9.64063e-08
6.20603e-13
9.64058e-08
6.36524e-13
9.64052e-08
6.9343e-13
9.64046e-08
8.22336e-13
9.64039e-08
9.77878e-13
9.64031e-08
1.15189e-12
9.64021e-08
1.34273e-12
9.6401e-08
1.5556e-12
9.63998e-08
1.80847e-12
9.63983e-08
2.13253e-12
9.63965e-08
2.52635e-12
9.63945e-08
2.98916e-12
9.6392e-08
3.53404e-12
9.6389e-08
4.17852e-12
9.63856e-08
4.94624e-12
9.63814e-08
5.8636e-12
9.63765e-08
6.95493e-12
9.63706e-08
8.26861e-12
9.63637e-08
9.85431e-12
9.63553e-08
1.17727e-11
9.63453e-08
1.40986e-11
9.63334e-08
1.69245e-11
9.6319e-08
2.03649e-11
9.63018e-08
2.45563e-11
9.6281e-08
2.96818e-11
9.62561e-08
3.59481e-11
9.6226e-08
4.35892e-11
9.61899e-08
5.29016e-11
9.61466e-08
6.42202e-11
9.60948e-08
7.79373e-11
9.6033e-08
9.44123e-11
9.59597e-08
1.14083e-10
9.58735e-08
1.3735e-10
9.57729e-08
1.64404e-10
9.56572e-08
1.94994e-10
9.55265e-08
2.28407e-10
9.53836e-08
2.61671e-10
9.52365e-08
2.8708e-10
2.90792e-10
1.76702e-07
5.62319e-10
1.7832e-07
2.52568e-09
1.80904e-07
4.21292e-09
1.83324e-07
5.25966e-09
1.85215e-07
5.94208e-09
1.86657e-07
6.54929e-09
1.87656e-07
7.09801e-09
1.88134e-07
7.51693e-09
1.88068e-07
7.81398e-09
1.87487e-07
8.04946e-09
1.86431e-07
8.27135e-09
1.84932e-07
8.50509e-09
1.8302e-07
8.7671e-09
1.8073e-07
9.06851e-09
1.78099e-07
9.41235e-09
1.75167e-07
9.79628e-09
1.71977e-07
1.0222e-08
1.68573e-07
1.07064e-08
1.64986e-07
1.12905e-08
1.61228e-07
1.20437e-08
1.57274e-07
1.30623e-08
1.53058e-07
1.44662e-08
1.48459e-07
1.63947e-08
1.43304e-07
1.90086e-08
1.37377e-07
2.25007e-08
1.30445e-07
2.71221e-08
1.22286e-07
3.31866e-08
1.11408e-07
4.12007e-08
8.59061e-08
4.89143e-08
6.05487e-08
3.44066e-08
4.3296e-08
2.26305e-08
3.82826e-08
5.34743e-09
3.31816e-08
3.04423e-09
2.2232e-08
8.27631e-09
1.95187e-08
4.87399e-10
2.34155e-08
-8.4697e-09
2.5385e-08
-7.20748e-09
2.68274e-08
-7.29207e-09
2.91053e-08
-7.46874e-09
3.29336e-08
-8.7957e-09
3.98435e-08
-1.26183e-08
5.50719e-08
-2.1389e-08
6.99352e-08
-1.95692e-08
7.90082e-08
-1.37049e-08
8.61176e-08
-1.23859e-08
9.30929e-08
-1.25636e-08
9.95633e-08
-1.15032e-08
1.03262e-07
-7.83937e-09
1.0626e-07
-6.74301e-09
1.09494e-07
-7.03408e-09
1.12785e-07
-7.20287e-09
1.15806e-07
-6.82683e-09
1.18553e-07
-6.30871e-09
1.21123e-07
-5.84019e-09
1.23469e-07
-5.31554e-09
1.25555e-07
-4.73815e-09
1.27372e-07
-4.15266e-09
1.28941e-07
-3.6002e-09
1.30285e-07
-3.09969e-09
1.31435e-07
-2.65897e-09
1.32418e-07
-2.27695e-09
1.33258e-07
-1.949e-09
1.33977e-07
-1.66883e-09
1.34592e-07
-1.42997e-09
1.35121e-07
-1.22643e-09
1.35575e-07
-1.05309e-09
1.35965e-07
-9.05152e-10
1.36301e-07
-7.79041e-10
1.36591e-07
-6.71387e-10
1.36841e-07
-5.79395e-10
1.37058e-07
-5.0056e-10
1.37245e-07
-4.32868e-10
1.37407e-07
-3.74772e-10
1.37547e-07
-3.24717e-10
1.37669e-07
-2.81481e-10
1.37775e-07
-2.44158e-10
1.37867e-07
-2.11825e-10
1.37947e-07
-1.83812e-10
1.38017e-07
-1.59556e-10
1.38078e-07
-1.38614e-10
1.3813e-07
-1.20561e-10
1.38176e-07
-1.05004e-10
1.38216e-07
-9.15096e-11
1.38251e-07
-7.97158e-11
1.38282e-07
-6.95337e-11
1.38308e-07
-6.0728e-11
1.38331e-07
-5.27986e-11
1.38351e-07
-4.61832e-11
1.38369e-07
-4.0218e-11
1.38384e-07
-3.50696e-11
1.38397e-07
-3.06827e-11
1.38409e-07
-2.68779e-11
1.3842e-07
-2.35709e-11
1.38429e-07
-2.06482e-11
1.38437e-07
-1.81185e-11
1.38444e-07
-1.58051e-11
1.3845e-07
-1.39253e-11
1.38455e-07
-1.23008e-11
1.3846e-07
-1.08873e-11
1.38464e-07
-9.55008e-12
1.38467e-07
-8.34649e-12
1.38471e-07
-7.39577e-12
1.38474e-07
-6.5778e-12
1.38476e-07
-5.86894e-12
1.38479e-07
-5.25727e-12
1.38481e-07
-4.72954e-12
1.38483e-07
-4.21815e-12
1.38484e-07
-3.73505e-12
1.38486e-07
-3.31366e-12
1.38487e-07
-2.86652e-12
1.38488e-07
-2.55112e-12
1.38489e-07
-2.19221e-12
1.3849e-07
-1.8218e-12
1.3849e-07
-1.51817e-12
1.38491e-07
-1.31954e-12
1.38491e-07
-1.29899e-12
1.38492e-07
-1.24142e-12
1.38493e-07
-1.06687e-12
1.38493e-07
-1.01091e-12
1.38494e-07
-8.07809e-13
1.38494e-07
-6.78613e-13
1.38494e-07
-5.62592e-13
1.38495e-07
-4.60033e-13
1.38495e-07
-3.80859e-13
1.38495e-07
-3.04536e-13
1.38495e-07
-2.27773e-13
1.38495e-07
-1.212e-13
1.38495e-07
-2.34664e-13
1.38496e-07
-3.99963e-13
1.38496e-07
-3.9458e-13
1.38496e-07
-3.92872e-13
1.38496e-07
-4.02492e-13
1.38496e-07
-4.85353e-13
1.38496e-07
-5.40342e-13
1.38496e-07
-4.99619e-13
1.38496e-07
-4.3884e-13
1.38497e-07
-3.86762e-13
1.38497e-07
-2.55873e-13
1.38497e-07
-7.93393e-14
1.38497e-07
-3.3557e-15
1.38497e-07
3.07263e-14
1.38497e-07
-6.05532e-14
1.38497e-07
-6.37495e-14
1.38497e-07
-7.571e-14
1.38498e-07
-1.02671e-13
1.38498e-07
-1.17306e-13
1.38498e-07
-8.46523e-14
1.38498e-07
-8.20464e-14
1.38498e-07
-1.05176e-13
1.38498e-07
-1.35437e-13
1.38499e-07
-1.48923e-13
1.38499e-07
-1.59377e-13
1.38499e-07
-1.71829e-13
1.38499e-07
-1.8921e-13
1.385e-07
-2.02001e-13
1.385e-07
-1.93622e-13
1.385e-07
-2.22365e-13
1.385e-07
-2.47238e-13
1.38501e-07
-2.53755e-13
1.38501e-07
-2.61288e-13
1.38501e-07
-2.77912e-13
1.38502e-07
-3.09242e-13
1.38502e-07
-3.20573e-13
1.38502e-07
-3.11632e-13
1.38502e-07
-3.04833e-13
1.38503e-07
-2.99641e-13
1.38503e-07
-2.94468e-13
1.38503e-07
-2.74408e-13
1.38503e-07
-2.45494e-13
1.38503e-07
-2.09914e-13
1.38503e-07
-1.64193e-13
1.38503e-07
-1.49181e-13
1.38503e-07
-1.45906e-13
1.38503e-07
-1.25149e-13
1.38503e-07
-1.07559e-13
1.38503e-07
-8.75117e-14
1.38503e-07
-6.46945e-14
1.38503e-07
-4.72725e-14
1.38503e-07
-7.90194e-14
1.38503e-07
-7.84584e-14
1.38504e-07
-4.3469e-14
1.38504e-07
2.83116e-15
1.38504e-07
4.64789e-14
1.38504e-07
3.98213e-14
1.38504e-07
1.03186e-13
1.38504e-07
1.61687e-13
1.38504e-07
2.18898e-13
1.38504e-07
1.00564e-13
1.38504e-07
4.03171e-14
1.38504e-07
1.16804e-13
1.38505e-07
-1.31853e-14
1.38505e-07
2.361e-13
1.38505e-07
3.88963e-13
1.38505e-07
2.56494e-13
1.38505e-07
2.31555e-13
1.38505e-07
2.32144e-13
1.38505e-07
2.877e-13
1.38505e-07
2.90384e-13
1.38504e-07
4.14217e-13
1.38504e-07
3.56538e-13
1.38504e-07
3.25776e-13
1.38504e-07
3.23409e-13
1.38504e-07
3.48188e-13
1.38504e-07
3.96842e-13
1.38503e-07
4.5927e-13
1.38503e-07
5.55434e-13
1.38503e-07
6.33002e-13
1.38502e-07
7.16592e-13
1.38502e-07
8.01663e-13
1.38501e-07
9.05044e-13
1.385e-07
1.01121e-12
1.385e-07
1.09678e-12
1.38499e-07
1.28398e-12
1.38498e-07
1.43875e-12
1.38497e-07
1.65912e-12
1.38496e-07
1.95634e-12
1.38495e-07
2.28352e-12
1.38494e-07
2.63129e-12
1.38492e-07
3.01655e-12
1.38491e-07
3.52623e-12
1.38489e-07
4.16647e-12
1.38486e-07
4.93583e-12
1.38483e-07
5.8448e-12
1.3848e-07
6.91603e-12
1.38476e-07
8.17674e-12
1.38471e-07
9.66923e-12
1.38466e-07
1.144e-11
1.38459e-07
1.35467e-11
1.38452e-07
1.60604e-11
1.38442e-07
1.9067e-11
1.38432e-07
2.26665e-11
1.38419e-07
2.69823e-11
1.38404e-07
3.21602e-11
1.38385e-07
3.83756e-11
1.38364e-07
4.58373e-11
1.38339e-07
5.47874e-11
1.38309e-07
6.5503e-11
1.38275e-07
7.82891e-11
1.38234e-07
9.35049e-11
1.38187e-07
1.11502e-10
1.38132e-07
1.32625e-10
1.38069e-07
1.57234e-10
1.37997e-07
1.85529e-10
1.37917e-07
2.17524e-10
1.37829e-07
2.52863e-10
1.37733e-07
2.90592e-10
1.37633e-07
3.28903e-10
1.37531e-07
3.63779e-10
1.3743e-07
3.87378e-10
3.88987e-10
1.79097e-07
4.15689e-10
1.79767e-07
1.86204e-09
1.80877e-07
3.11721e-09
1.82125e-07
4.00985e-09
1.83351e-07
4.70975e-09
1.84538e-07
5.35058e-09
1.85676e-07
5.95227e-09
1.86693e-07
6.49765e-09
1.87513e-07
6.99487e-09
1.8809e-07
7.47522e-09
1.88394e-07
7.96956e-09
1.88402e-07
8.49859e-09
1.88096e-07
9.07371e-09
1.87467e-07
9.69641e-09
1.86519e-07
1.03568e-08
1.85274e-07
1.1037e-08
1.83769e-07
1.17214e-08
1.8206e-07
1.24092e-08
1.80218e-07
1.31256e-08
1.78328e-07
1.39268e-08
1.76485e-07
1.48986e-08
1.74796e-07
1.61486e-08
1.7339e-07
1.77946e-08
1.7244e-07
1.99534e-08
1.72205e-07
2.27301e-08
1.73113e-07
2.62072e-08
1.75878e-07
3.0413e-08
1.81753e-07
3.53158e-08
1.90007e-07
4.06511e-08
1.81787e-07
4.26292e-08
1.61279e-07
4.31474e-08
1.37051e-07
2.95864e-08
1.24249e-07
1.58417e-08
1.21036e-07
1.14861e-08
1.15803e-07
5.74844e-09
1.10249e-07
-2.88096e-09
1.09876e-07
-6.7906e-09
1.09295e-07
-6.66231e-09
1.08329e-07
-6.46824e-09
1.07848e-07
-8.28741e-09
1.05836e-07
-1.05967e-08
9.5329e-08
-1.08751e-08
7.90441e-08
-3.24831e-09
8.2685e-08
-1.73405e-08
8.87497e-08
-1.8439e-08
1.0016e-07
-2.39443e-08
1.17754e-07
-2.90465e-08
1.32277e-07
-2.23374e-08
1.41879e-07
-1.63371e-08
1.46583e-07
-1.17367e-08
1.48633e-07
-9.25341e-09
1.49873e-07
-8.06673e-09
1.51355e-07
-7.78923e-09
1.53171e-07
-7.6532e-09
1.55028e-07
-7.17073e-09
1.56789e-07
-6.49807e-09
1.58365e-07
-5.72839e-09
1.59735e-07
-4.97033e-09
1.60913e-07
-4.27827e-09
1.61924e-07
-3.66888e-09
1.6279e-07
-3.14185e-09
1.63532e-07
-2.69048e-09
1.6417e-07
-2.30555e-09
1.64719e-07
-1.97785e-09
1.65192e-07
-1.69881e-09
1.65601e-07
-1.46106e-09
1.65954e-07
-1.258e-09
1.6626e-07
-1.08457e-09
1.66525e-07
-9.36152e-10
1.66754e-07
-8.09002e-10
1.66954e-07
-6.99822e-10
1.67127e-07
-6.05934e-10
1.67277e-07
-5.25159e-10
1.67408e-07
-4.55498e-10
1.67522e-07
-3.95342e-10
1.67621e-07
-3.43345e-10
1.67707e-07
-2.98321e-10
1.67782e-07
-2.59293e-10
1.67848e-07
-2.25469e-10
1.67905e-07
-1.96157e-10
1.67955e-07
-1.70794e-10
1.67999e-07
-1.48758e-10
1.68037e-07
-1.29673e-10
1.6807e-07
-1.13074e-10
1.68099e-07
-9.86268e-11
1.68124e-07
-8.58427e-11
1.68146e-07
-7.50029e-11
1.68166e-07
-6.55373e-11
1.68183e-07
-5.7248e-11
1.68197e-07
-4.98563e-11
1.6821e-07
-4.36771e-11
1.68222e-07
-3.82571e-11
1.68232e-07
-3.36397e-11
1.68241e-07
-2.94746e-11
1.68248e-07
-2.56827e-11
1.68255e-07
-2.2522e-11
1.68261e-07
-1.98255e-11
1.68266e-07
-1.7501e-11
1.68271e-07
-1.54167e-11
1.68275e-07
-1.3583e-11
1.68278e-07
-1.20488e-11
1.68281e-07
-1.06122e-11
1.68284e-07
-9.41537e-12
1.68287e-07
-8.42912e-12
1.68289e-07
-7.55379e-12
1.68291e-07
-6.717e-12
1.68293e-07
-5.98186e-12
1.68294e-07
-5.31273e-12
1.68296e-07
-4.70572e-12
1.68297e-07
-4.15625e-12
1.68298e-07
-3.66235e-12
1.68299e-07
-3.20355e-12
1.683e-07
-2.79602e-12
1.68301e-07
-2.4648e-12
1.68301e-07
-2.16997e-12
1.68302e-07
-1.96487e-12
1.68303e-07
-1.80553e-12
1.68303e-07
-1.62288e-12
1.68304e-07
-1.42123e-12
1.68304e-07
-1.2145e-12
1.68304e-07
-1.02814e-12
1.68305e-07
-8.44008e-13
1.68305e-07
-6.95069e-13
1.68305e-07
-4.98164e-13
1.68306e-07
-4.02245e-13
1.68306e-07
-3.85149e-13
1.68306e-07
-4.65668e-13
1.68306e-07
-4.03728e-13
1.68307e-07
-4.23943e-13
1.68307e-07
-4.67552e-13
1.68307e-07
-4.92953e-13
1.68307e-07
-5.7235e-13
1.68307e-07
-5.81638e-13
1.68307e-07
-6.82084e-13
1.68307e-07
-5.28312e-13
1.68307e-07
-4.30404e-13
1.68307e-07
-3.52221e-13
1.68307e-07
-2.58052e-13
1.68307e-07
-1.10404e-13
1.68307e-07
-2.93337e-14
1.68307e-07
-8.94224e-14
1.68308e-07
-8.135e-14
1.68308e-07
-6.98628e-14
1.68308e-07
-7.46748e-14
1.68308e-07
-8.28769e-14
1.68308e-07
-9.25501e-14
1.68308e-07
-8.80074e-14
1.68309e-07
-8.83113e-14
1.68309e-07
-1.05396e-13
1.68309e-07
-1.23447e-13
1.68309e-07
-1.38424e-13
1.68309e-07
-1.50202e-13
1.6831e-07
-1.61309e-13
1.6831e-07
-1.72109e-13
1.6831e-07
-1.83162e-13
1.6831e-07
-1.92046e-13
1.6831e-07
-2.16822e-13
1.68311e-07
-2.42626e-13
1.68311e-07
-2.69375e-13
1.68311e-07
-2.77653e-13
1.68312e-07
-2.84051e-13
1.68312e-07
-2.87699e-13
1.68312e-07
-2.78911e-13
1.68312e-07
-2.65924e-13
1.68312e-07
-2.58181e-13
1.68313e-07
-2.58574e-13
1.68313e-07
-2.48301e-13
1.68313e-07
-2.30614e-13
1.68313e-07
-2.05916e-13
1.68313e-07
-1.75647e-13
1.68313e-07
-1.42833e-13
1.68313e-07
-1.19659e-13
1.68313e-07
-1.04174e-13
1.68313e-07
-8.94087e-14
1.68313e-07
-7.43846e-14
1.68313e-07
-5.85733e-14
1.68313e-07
-4.4308e-14
1.68314e-07
-3.30205e-14
1.68314e-07
-2.9888e-14
1.68314e-07
-2.67058e-14
1.68314e-07
-7.03067e-15
1.68314e-07
2.00655e-14
1.68314e-07
4.43029e-14
1.68314e-07
6.79965e-14
1.68314e-07
1.23731e-13
1.68314e-07
1.71615e-13
1.68314e-07
1.38377e-13
1.68314e-07
1.00248e-13
1.68315e-07
7.69738e-14
1.68315e-07
9.17764e-14
1.68315e-07
1.44608e-13
1.68315e-07
2.23206e-13
1.68315e-07
2.66587e-13
1.68315e-07
3.10088e-13
1.68315e-07
2.97996e-13
1.68315e-07
3.41737e-13
1.68315e-07
4.41345e-13
1.68315e-07
5.46708e-13
1.68315e-07
5.08607e-13
1.68314e-07
5.02024e-13
1.68314e-07
4.97268e-13
1.68314e-07
4.94943e-13
1.68314e-07
5.19374e-13
1.68314e-07
5.7296e-13
1.68313e-07
6.71291e-13
1.68313e-07
8.21119e-13
1.68313e-07
9.50154e-13
1.68312e-07
1.13194e-12
1.68312e-07
1.26132e-12
1.68311e-07
1.31809e-12
1.68311e-07
1.59468e-12
1.6831e-07
1.74698e-12
1.68309e-07
1.99678e-12
1.68308e-07
2.28066e-12
1.68307e-07
2.62066e-12
1.68306e-07
3.03119e-12
1.68305e-07
3.52787e-12
1.68304e-07
4.06037e-12
1.68302e-07
4.68385e-12
1.683e-07
5.46692e-12
1.68298e-07
6.42572e-12
1.68295e-07
7.56882e-12
1.68292e-07
8.923e-12
1.68289e-07
1.05186e-11
1.68285e-07
1.23967e-11
1.6828e-07
1.46106e-11
1.68274e-07
1.72261e-11
1.68267e-07
2.03215e-11
1.6826e-07
2.39875e-11
1.6825e-07
2.83344e-11
1.6824e-07
3.34915e-11
1.68227e-07
3.96104e-11
1.68212e-07
4.68686e-11
1.68195e-07
5.54708e-11
1.68176e-07
6.56507e-11
1.68153e-07
7.76695e-11
1.68126e-07
9.18119e-11
1.68096e-07
1.08381e-10
1.68062e-07
1.27684e-10
1.68023e-07
1.5001e-10
1.6798e-07
1.75595e-10
1.67933e-07
2.04582e-10
1.67881e-07
2.36923e-10
1.67827e-07
2.72269e-10
1.6777e-07
3.09877e-10
1.67712e-07
3.48358e-10
1.67656e-07
3.85593e-10
1.67601e-07
4.17718e-10
1.67551e-07
4.38159e-10
4.39059e-10
1.80924e-07
3.32122e-10
1.81299e-07
1.49219e-09
1.8192e-07
2.51061e-09
1.8266e-07
3.26647e-09
1.83457e-07
3.90496e-09
1.84275e-07
4.51869e-09
1.85105e-07
5.11371e-09
1.85919e-07
5.68015e-09
1.86687e-07
6.22857e-09
1.8738e-07
6.78419e-09
1.87979e-07
7.37304e-09
1.88465e-07
8.01495e-09
1.88819e-07
8.72045e-09
1.89027e-07
9.48745e-09
1.89083e-07
1.0299e-08
1.88991e-07
1.11264e-08
1.88769e-07
1.19384e-08
1.88458e-07
1.27139e-08
1.88123e-07
1.34541e-08
1.87853e-07
1.41886e-08
1.8777e-07
1.49742e-08
1.88026e-07
1.58857e-08
1.88813e-07
1.70019e-08
1.90371e-07
1.83892e-08
1.9301e-07
2.0086e-08
1.97123e-07
2.20885e-08
2.0319e-07
2.434e-08
2.11788e-07
2.67109e-08
2.23324e-07
2.91101e-08
2.34879e-07
3.10702e-08
2.4655e-07
3.14727e-08
2.48306e-07
2.78243e-08
2.41772e-07
2.23675e-08
2.36523e-07
1.67294e-08
2.31335e-07
1.09381e-08
2.22879e-07
5.59179e-09
2.1436e-07
1.76156e-09
2.08642e-07
-8.83338e-10
2.04795e-07
-2.53437e-09
2.00522e-07
-3.91496e-09
1.94781e-07
-4.76047e-09
1.88958e-07
-5.01473e-09
1.93561e-07
-7.83355e-09
1.90414e-07
-1.42145e-08
1.91564e-07
-1.9641e-08
1.89902e-07
-2.23575e-08
1.81084e-07
-2.02314e-08
1.75644e-07
-1.68565e-08
1.73339e-07
-1.40076e-08
1.74375e-07
-1.27577e-08
1.76523e-07
-1.13944e-08
1.7809e-07
-9.6315e-09
1.78785e-07
-8.48427e-09
1.79315e-07
-8.18478e-09
1.80099e-07
-7.95277e-09
1.81026e-07
-7.42468e-09
1.81943e-07
-6.64496e-09
1.82786e-07
-5.81348e-09
1.83535e-07
-5.02769e-09
1.84194e-07
-4.32745e-09
1.8477e-07
-3.71796e-09
1.85274e-07
-3.19385e-09
1.85715e-07
-2.7455e-09
1.86101e-07
-2.36257e-09
1.86438e-07
-2.03546e-09
1.86734e-07
-1.75571e-09
1.86992e-07
-1.51615e-09
1.87219e-07
-1.31071e-09
1.87417e-07
-1.13428e-09
1.8759e-07
-9.82565e-10
1.87742e-07
-8.51773e-10
1.87875e-07
-7.39012e-10
1.87991e-07
-6.41568e-10
1.88093e-07
-5.57322e-10
1.88182e-07
-4.84422e-10
1.8826e-07
-4.21286e-10
1.88328e-07
-3.66555e-10
1.88388e-07
-3.19077e-10
1.8844e-07
-2.77856e-10
1.88486e-07
-2.42061e-10
1.88526e-07
-2.10964e-10
1.88561e-07
-1.83966e-10
1.88591e-07
-1.60471e-10
1.88618e-07
-1.40028e-10
1.88642e-07
-1.2223e-10
1.88663e-07
-1.06703e-10
1.88681e-07
-9.32877e-11
1.88697e-07
-8.14372e-11
1.88711e-07
-7.11083e-11
1.88723e-07
-6.23464e-11
1.88734e-07
-5.44834e-11
1.88743e-07
-4.76465e-11
1.88751e-07
-4.1794e-11
1.88758e-07
-3.67091e-11
1.88765e-07
-3.21836e-11
1.88771e-07
-2.82127e-11
1.88776e-07
-2.4792e-11
1.8878e-07
-2.18021e-11
1.88784e-07
-1.91968e-11
1.88787e-07
-1.69888e-11
1.8879e-07
-1.50125e-11
1.88793e-07
-1.32879e-11
1.88795e-07
-1.1758e-11
1.88798e-07
-1.04565e-11
1.88799e-07
-9.31167e-12
1.88801e-07
-8.28977e-12
1.88802e-07
-7.36844e-12
1.88804e-07
-6.54399e-12
1.88805e-07
-5.80811e-12
1.88806e-07
-5.1522e-12
1.88807e-07
-4.5662e-12
1.88808e-07
-4.04846e-12
1.88809e-07
-3.59969e-12
1.88809e-07
-3.21554e-12
1.8881e-07
-2.86958e-12
1.88811e-07
-2.57077e-12
1.88811e-07
-2.28886e-12
1.88811e-07
-2.03845e-12
1.88812e-07
-1.79479e-12
1.88812e-07
-1.55819e-12
1.88813e-07
-1.33491e-12
1.88813e-07
-1.15941e-12
1.88813e-07
-1.00598e-12
1.88814e-07
-8.59663e-13
1.88814e-07
-7.35373e-13
1.88815e-07
-6.73768e-13
1.88815e-07
-6.49145e-13
1.88815e-07
-6.26767e-13
1.88815e-07
-6.27448e-13
1.88816e-07
-6.4807e-13
1.88816e-07
-6.53433e-13
1.88816e-07
-6.27126e-13
1.88816e-07
-6.24416e-13
1.88815e-07
-5.71288e-13
1.88815e-07
-5.64372e-13
1.88815e-07
-4.93964e-13
1.88815e-07
-3.9878e-13
1.88816e-07
-3.10449e-13
1.88816e-07
-2.46085e-13
1.88816e-07
-1.83985e-13
1.88816e-07
-1.40906e-13
1.88816e-07
-1.28894e-13
1.88816e-07
-1.26999e-13
1.88816e-07
-1.20867e-13
1.88816e-07
-1.21535e-13
1.88817e-07
-1.23674e-13
1.88817e-07
-1.32437e-13
1.88817e-07
-1.39896e-13
1.88817e-07
-1.50799e-13
1.88817e-07
-1.63319e-13
1.88817e-07
-1.75081e-13
1.88818e-07
-1.85377e-13
1.88818e-07
-1.95053e-13
1.88818e-07
-2.04772e-13
1.88818e-07
-2.14983e-13
1.88819e-07
-2.29246e-13
1.88819e-07
-2.40599e-13
1.88819e-07
-2.57073e-13
1.88819e-07
-2.729e-13
1.88819e-07
-2.83022e-13
1.8882e-07
-2.86946e-13
1.8882e-07
-2.8554e-13
1.8882e-07
-2.78938e-13
1.8882e-07
-2.70041e-13
1.8882e-07
-2.6183e-13
1.88821e-07
-2.54106e-13
1.88821e-07
-2.43161e-13
1.88821e-07
-2.27524e-13
1.88821e-07
-2.07581e-13
1.88821e-07
-1.84973e-13
1.88821e-07
-1.62555e-13
1.88821e-07
-1.43958e-13
1.88821e-07
-1.29521e-13
1.88821e-07
-1.17006e-13
1.88821e-07
-1.04072e-13
1.88822e-07
-9.07353e-14
1.88822e-07
-7.69388e-14
1.88822e-07
-6.43703e-14
1.88822e-07
-5.21748e-14
1.88822e-07
-3.60083e-14
1.88822e-07
-1.79781e-14
1.88822e-07
3.81668e-15
1.88822e-07
2.95376e-14
1.88822e-07
5.50741e-14
1.88822e-07
6.97032e-14
1.88822e-07
6.42671e-14
1.88822e-07
6.844e-14
1.88822e-07
6.98093e-14
1.88823e-07
9.74689e-14
1.88823e-07
1.18039e-13
1.88823e-07
1.68689e-13
1.88823e-07
2.29534e-13
1.88823e-07
2.82967e-13