/*--------------------------------*- C++ -*----------------------------------*\
| =========                 |                                                 |
| \\      /  F ield         | OpenFOAM: The Open Source CFD Toolbox           |
|  \\    /   O peration     | Version:  2406                                  |
|   \\  /    A nd           | Website:  www.openfoam.com                      |
|    \\/     M anipulation  |                                                 |
\*---------------------------------------------------------------------------*/
FoamFile
{
    version     2.0;
    format      ascii;
    arch        "LSB;label=32;scalar=64";
    class       surfaceScalarField;
    location    "0.1";
    object      phi;
}
// * * * * * * * * * * * * * * * * * * * * * * * * * * * * * * * * * * * * * //

dimensions      [0 3 -1 0 0 0 0];

oriented        oriented;

internalField   nonuniform List<scalar> 
12225
(
0.146085
2.55356e-06
0.146074
1.06607e-05
0.146064
9.78178e-06
0.146057
7.48558e-06
0.146055
1.49888e-06
0.146055
5.19307e-07
0.146053
1.60535e-06
0.146053
5.44957e-07
0.146052
1.11337e-06
0.146051
9.53125e-07
0.14605
8.2858e-07
0.146049
1.24636e-06
0.146048
5.51668e-07
0.146047
1.41051e-06
0.146044
3.01571e-06
0.146041
2.48539e-06
0.146041
-6.99654e-08
0.146043
-2.21209e-06
0.146046
-2.88121e-06
0.146051
-4.56881e-06
0.146058
-7.12433e-06
0.146065
-7.08324e-06
0.146069
-4.35395e-06
0.146071
-1.43032e-06
0.146069
2.28457e-06
0.146062
6.71541e-06
0.146054
8.20484e-06
0.146048
5.43166e-06
0.146047
1.38991e-06
0.146049
-2.24498e-06
0.146053
-4.06045e-06
0.146056
-3.30373e-06
0.146058
-1.84657e-06
0.14606
-1.47091e-06
0.146062
-1.84056e-06
0.146062
-2.92476e-07
0.14606
2.1446e-06
0.146058
1.70469e-06
0.146059
-1.08123e-06
0.146062
-2.79076e-06
0.146063
-9.57857e-07
0.146061
1.38915e-06
0.14606
1.3274e-06
0.146061
-5.9561e-07
0.146062
-1.55633e-06
0.146063
-4.69278e-07
0.146062
1.24854e-06
0.146059
2.31461e-06
0.146057
2.1743e-06
0.146056
9.34224e-07
0.146057
-8.74679e-07
0.146059
-2.25202e-06
0.146061
-2.03135e-06
0.146061
-1.0206e-07
0.14606
1.4342e-06
0.146058
1.47794e-06
0.146058
1.31638e-07
0.14606
-1.33985e-06
0.146062
-1.92012e-06
0.146063
-1.79594e-06
0.146064
-8.8891e-07
0.146064
7.65345e-07
0.146061
2.38403e-06
0.146058
3.14529e-06
0.146056
1.91079e-06
0.146057
-6.32645e-07
0.146059
-2.48599e-06
0.146061
-1.9794e-06
0.146061
-3.06497e-08
0.14606
1.43578e-06
0.146059
1.02637e-06
0.146059
-3.86146e-07
0.146061
-1.46645e-06
0.146062
-1.35881e-06
0.146063
-5.73836e-07
0.146062
1.76608e-07
0.146062
3.07849e-07
0.146062
9.97163e-08
0.146062
-8.63852e-08
0.146062
-1.46805e-07
0.146062
-1.18138e-07
0.146062
-7.28987e-08
0.146062
-4.19689e-08
0.146062
-3.43111e-08
0.146063
-1.94166e-07
0.146063
-3.96156e-07
0.146063
-4.72798e-07
0.146064
-2.07659e-07
0.146063
2.29264e-07
0.146063
4.55982e-07
0.146063
1.75587e-07
0.146063
-2.38126e-07
0.146064
-5.73308e-07
0.146064
-4.78425e-07
0.146064
-6.75899e-08
0.146064
3.49112e-07
0.146063
3.46202e-07
0.146063
8.72872e-08
0.146064
-2.66938e-07
0.146064
-5.13422e-07
0.146065
-5.3538e-07
0.146065
-3.28929e-07
0.146065
1.21767e-07
0.146064
5.74982e-07
0.146064
7.58708e-07
0.146063
7.30465e-07
0.146063
2.62229e-07
0.146063
-3.86425e-07
0.146064
-7.00053e-07
0.146064
-3.23286e-07
0.146063
6.14581e-07
0.146062
1.12918e-06
0.146061
9.11718e-07
0.146061
-8.05959e-08
0.146062
-9.81208e-07
0.146063
-1.05063e-06
0.146064
-1.44052e-07
0.146063
1.09789e-06
0.146061
1.79508e-06
0.146059
1.55667e-06
0.146058
6.69636e-07
0.146059
-9.24761e-08
0.146059
-1.8352e-07
0.146059
1.87815e-07
0.146058
2.84688e-07
0.146058
-3.87298e-08
0.146059
-3.96147e-07
0.146059
-2.87443e-07
0.146059
2.76001e-07
0.146058
7.52733e-07
0.146057
7.52692e-07
0.146057
2.11833e-07
0.146057
-2.38879e-07
0.146058
-3.28082e-07
0.146058
-8.9281e-08
0.146058
-1.39787e-09
0.146058
-2.97551e-07
0.146058
-4.56813e-07
0.146059
-9.36792e-08
0.146058
7.63381e-07
0.146057
1.09981e-06
0.146056
6.91271e-07
0.146056
-2.20018e-07
0.146057
-1.24864e-06
0.146059
-1.36077e-06
0.146059
-4.51436e-07
0.146058
1.29303e-06
0.146056
2.03717e-06
0.146055
1.41743e-06
0.146054
2.92847e-07
0.146055
-9.33714e-07
0.146057
-1.71957e-06
0.146059
-2.25149e-06
0.146061
-2.31935e-06
0.146063
-1.39871e-06
0.146062
4.01483e-07
0.14606
2.01656e-06
0.146058
2.57682e-06
0.146056
1.88032e-06
0.146055
5.13221e-07
0.146057
-1.21341e-06
0.146059
-2.5145e-06
0.146062
-2.86464e-06
0.146064
-1.94806e-06
0.146064
-4.35613e-08
0.146062
1.75676e-06
0.14606
2.23826e-06
0.146058
1.68005e-06
0.146058
7.33705e-07
0.146058
-4.53209e-07
0.14606
-1.54596e-06
0.146062
-2.39577e-06
0.146065
-2.48413e-06
0.146066
-1.45811e-06
0.146066
3.51488e-07
0.146064
1.74902e-06
0.146062
2.21842e-06
0.14606
1.73992e-06
0.146059
8.17612e-07
0.146059
-1.41087e-07
0.14606
-1.0938e-06
0.146062
-1.73386e-06
0.146064
-1.76441e-06
0.146065
-1.00607e-06
0.146064
5.62252e-07
0.146063
1.69912e-06
0.14606
2.099e-06
0.146059
1.78135e-06
0.146058
1.13742e-06
0.146057
5.01583e-07
0.146057
-1.36068e-07
0.146058
-7.6472e-07
0.146059
-1.28554e-06
0.146061
-1.31836e-06
0.146061
-6.28795e-07
0.14606
7.36255e-07
0.146059
1.68226e-06
0.146057
1.64194e-06
0.146056
9.78783e-07
0.146056
2.40055e-07
0.146056
-2.47739e-07
0.146057
-5.81251e-07
0.146058
-9.57551e-07
0.146059
-1.44333e-06
0.146061
-1.69551e-06
0.146062
-1.19878e-06
0.146062
-3.36422e-08
0.146061
1.29822e-06
0.146059
1.82587e-06
0.146058
1.44215e-06
0.146057
6.83292e-07
0.146057
-2.69254e-07
0.146058
-9.27725e-07
0.146059
-1.32373e-06
0.146061
-1.55043e-06
0.146063
-1.69994e-06
0.146064
-1.75316e-06
0.146066
-1.48218e-06
0.146067
-6.78021e-07
0.146066
5.82798e-07
0.146064
1.58978e-06
0.146062
1.93826e-06
0.146061
1.5808e-06
0.14606
8.3256e-07
0.14606
5.95118e-08
0.14606
-5.17265e-07
0.146061
-8.532e-07
0.146062
-1.12999e-06
0.146064
-1.4312e-06
0.146066
-1.81039e-06
0.146068
-2.05293e-06
0.146069
-1.55218e-06
0.146069
-8.1142e-08
0.146068
1.65045e-06
0.146065
2.5447e-06
0.146063
2.58323e-06
0.146061
2.02127e-06
0.146059
1.35592e-06
0.146058
8.06275e-07
0.146058
2.96138e-07
0.146058
-2.59594e-07
0.146059
-9.5287e-07
0.146061
-1.69722e-06
0.146063
-2.35887e-06
0.146066
-2.84548e-06
0.146069
-3.11388e-06
0.146072
-3.16339e-06
0.146075
-3.02851e-06
0.146078
-2.82721e-06
-1.77572e-06
0.14609
-7.41062e-07
0.146102
-1.46503e-06
0.146113
-3.63158e-07
0.146117
3.08422e-06
0.146115
3.04865e-06
0.146114
2.16659e-06
0.146113
2.83059e-06
0.146112
8.06813e-07
0.146113
8.57594e-07
0.146114
-4.28586e-08
0.146115
-5.40866e-07
0.146115
8.22911e-07
0.146114
1.60619e-06
0.146113
2.53877e-06
0.146114
2.16825e-06
0.146114
2.29406e-06
0.146111
3.59508e-06
0.146106
2.78941e-06
0.146101
1.73015e-06
0.146093
3.00771e-06
0.146082
4.00008e-06
0.146074
1.26052e-06
0.146072
-2.27331e-06
0.146075
-4.22766e-06
0.146082
-5.54063e-06
0.146096
-6.4343e-06
0.146109
-5.26403e-06
0.146116
-1.97229e-06
0.146117
8.48906e-07
0.146112
2.40398e-06
0.146106
1.96877e-06
0.146101
2.05104e-06
0.146096
3.02161e-06
0.146092
2.91461e-06
0.14609
1.72363e-07
0.146092
-2.88115e-06
0.146097
-2.55489e-06
0.146099
1.3225e-07
0.146096
1.57208e-06
0.146093
-5.64051e-08
0.146093
-1.19837e-06
0.146095
1.8618e-07
0.146094
1.94563e-06
0.146092
1.38139e-06
0.146091
-4.29396e-07
0.146092
-1.23848e-06
0.146094
-1.1697e-06
0.146097
-4.12874e-07
0.146098
9.37983e-07
0.146097
2.1361e-06
0.146094
1.96562e-06
0.146092
1.30953e-07
0.146092
-2.10702e-06
0.146094
-2.53993e-06
0.146097
-1.71549e-06
0.146099
-4.01402e-07
0.146099
2.14594e-07
0.146098
8.56452e-08
0.146096
-1.03145e-08
0.146094
-4.22296e-08
0.146094
-4.9122e-07
0.146096
-1.25037e-06
0.146099
-1.36259e-06
0.146102
4.85332e-08
0.146102
2.11095e-06
0.146099
2.97994e-06
0.146094
1.73319e-06
0.146093
-5.17812e-07
0.146095
-1.83833e-06
0.146097
-1.18004e-06
0.146098
3.01141e-07
0.146097
1.03292e-06
0.146095
3.58464e-07
0.146094
-8.20709e-07
0.146095
-1.19059e-06
0.146096
-4.09565e-07
0.146095
6.65594e-07
0.146094
9.5023e-07
0.146094
4.76265e-07
0.146094
-1.41337e-07
0.146094
-3.51818e-07
0.146094
-3.66467e-07
0.146095
-5.92848e-07
0.146096
-1.02193e-06
0.146097
-1.23633e-06
0.146097
-9.54277e-07
0.146097
-4.26899e-07
0.146097
-4.65719e-08
0.146097
-7.66514e-08
0.146098
-2.04394e-07
0.146099
-2.35478e-07
0.146098
-2.20141e-08
0.146098
2.03909e-07
0.146097
2.93506e-07
0.146097
1.61681e-07
0.146097
1.4622e-08
0.146097
-1.08715e-07
0.146098
-2.07739e-07
0.146098
-3.39044e-07
0.146098
-4.71148e-07
0.146098
-4.89052e-07
0.146098
-2.60648e-07
0.146098
3.40856e-08
0.146098
3.45986e-07
0.146098
5.8974e-07
0.146098
7.55668e-07
0.146097
7.96543e-07
0.146096
6.77771e-07
0.146095
3.38078e-07
0.146095
1.19321e-08
0.146096
3.13528e-08
0.146096
4.016e-07
0.146096
7.76743e-07
0.146096
7.55158e-07
0.146094
2.93547e-07
0.146093
-4.83098e-08
0.146093
2.50601e-07
0.146093
1.27501e-06
0.146092
2.45514e-06
0.146091
2.98529e-06
0.146089
2.41008e-06
0.146088
9.5293e-07
0.146088
-3.24534e-07
0.146089
-6.3894e-07
0.146089
-4.64105e-10
0.146088
7.70851e-07
0.146087
8.76786e-07
0.146086
4.87714e-07
0.146086
1.27546e-07
0.146087
2.90435e-07
0.146087
7.5735e-07
0.146086
9.16936e-07
0.146085
5.78047e-07
0.146085
-9.88224e-08
0.146086
-5.03899e-07
0.146086
-4.77959e-07
0.146086
-3.12755e-07
0.146086
-4.03481e-07
0.146087
-6.16842e-07
0.146088
-5.3284e-07
0.146089
-2.23925e-08
0.146089
6.8594e-07
0.146088
9.68902e-07
0.146086
5.79921e-07
0.146085
-2.27066e-07
0.146085
-9.06571e-07
0.146087
-7.76047e-07
0.14609
-2.11769e-07
0.146091
1.91145e-08
0.146092
-5.23348e-07
0.146093
-1.71443e-06
0.146094
-2.6424e-06
0.146094
-2.82473e-06
0.146094
-2.29326e-06
0.146094
-1.35069e-06
0.146095
-2.52112e-07
0.146096
6.78546e-07
0.146097
1.16416e-06
0.146098
1.02608e-06
0.146099
1.99902e-07
0.146098
-1.07184e-06
0.146098
-2.24194e-06
0.146098
-2.808e-06
0.146099
-2.46627e-06
0.1461
-1.27944e-06
0.146102
7.4701e-08
0.146103
1.14825e-06
0.146103
1.35735e-06
0.146103
6.35136e-07
0.146103
-4.8004e-07
0.146103
-1.54345e-06
0.146103
-2.16069e-06
0.146103
-2.15017e-06
0.146103
-1.47133e-06
0.146103
-2.26149e-07
0.146104
1.12257e-06
0.146104
2.01025e-06
0.146104
2.13542e-06
0.146103
1.54114e-06
0.146102
6.09185e-07
0.146101
-1.41413e-07
0.1461
-5.4134e-07
0.146099
-4.89535e-07
0.146098
8.51735e-08
0.146097
1.18007e-06
0.146096
2.63653e-06
0.146094
3.75901e-06
0.146092
3.98857e-06
0.14609
3.28003e-06
0.146088
2.05788e-06
0.146087
8.52212e-07
0.146087
-5.90117e-10
0.146086
-4.96906e-07
0.146085
-7.82238e-07
0.146085
-6.99821e-07
0.146086
-1.3562e-07
0.146087
8.50974e-07
0.146087
1.69806e-06
0.146086
1.76315e-06
0.146086
8.73192e-07
0.146086
-4.665e-07
0.146087
-1.57845e-06
0.146088
-2.17369e-06
0.146089
-2.35882e-06
0.14609
-2.3547e-06
0.146091
-2.21096e-06
0.146092
-1.76443e-06
0.146095
-9.63846e-07
0.146097
-1.54999e-07
0.146098
4.70197e-07
0.146098
5.09059e-07
0.146098
-7.1779e-08
0.146098
-1.00676e-06
0.146098
-1.82441e-06
0.146099
-2.19715e-06
0.146099
-2.07005e-06
0.146099
-1.64477e-06
0.146099
-1.20605e-06
0.146099
-7.80677e-07
0.1461
-2.69399e-07
0.146101
4.0227e-07
0.146102
1.3066e-06
0.146101
2.03568e-06
0.1461
2.25646e-06
0.146098
1.88004e-06
0.146096
1.1523e-06
0.146095
4.27257e-07
0.146094
-3.60593e-08
0.146093
-3.05572e-07
0.146091
-5.12811e-07
0.14609
-9.08006e-07
0.14609
-1.3923e-06
0.146092
-1.49939e-06
0.146094
-1.05805e-06
0.146097
-4.40764e-07
0.1461
-7.94874e-08
0.146102
-2.1324e-07
0.146104
-6.79289e-07
0.146106
-1.21825e-06
0.146108
-1.67851e-06
0.14611
-2.04972e-06
0.146111
-2.40265e-06
0.146112
-2.75297e-06
0.146113
-3.04222e-06
0.146113
-3.17022e-06
0.146113
-3.0692e-06
0.146113
-2.75069e-06
0.146112
-2.2968e-06
0.146111
-1.87784e-06
-1.19084e-06
0.146088
-2.07107e-06
0.146085
8.28336e-07
0.146084
9.25909e-07
0.146089
-2.32858e-06
0.146093
-8.03964e-07
0.146096
-9.20352e-07
0.146097
2.07406e-06
0.146095
3.01021e-06
0.146094
1.76179e-06
0.146092
1.65823e-06
0.146092
-4.9187e-08
0.146094
-1.14966e-06
0.146098
-3.04105e-06
0.146104
-3.38964e-06
0.146109
-2.05e-06
0.146112
-1.05257e-06
0.146116
-7.06125e-08
0.146118
2.24478e-07
0.146119
8.20184e-07
0.14612
2.43645e-06
0.14612
3.56538e-06
0.146117
4.16919e-06
0.146109
5.6821e-06
0.146099
5.59821e-06
0.14609
3.50941e-06
0.146083
1.21071e-06
0.146078
-5.47062e-07
0.146077
-1.5081e-06
0.14608
-1.70978e-06
0.146083
-9.16854e-07
0.146086
-7.95598e-07
0.14609
-2.10218e-06
0.146095
-2.09939e-06
0.146098
1.09363e-07
0.146097
1.27284e-06
0.146094
-2.47256e-07
0.146094
-1.97603e-06
0.146095
-1.1087e-06
0.146095
1.56144e-06
0.146092
2.54653e-06
0.146091
7.58993e-07
0.146092
-8.52499e-07
0.146094
-4.58984e-07
0.146094
8.74412e-07
0.146093
1.30199e-06
0.146091
8.79629e-07
0.146089
7.29825e-08
0.14609
-8.90819e-07
0.146092
-1.45949e-06
0.146096
-1.10422e-06
0.146097
2.60943e-07
0.146096
1.48993e-06
0.146092
1.43206e-06
0.146089
3.23246e-07
0.146089
-1.11149e-06
0.14609
-1.83222e-06
0.146092
-1.92837e-06
0.146094
-1.82857e-06
0.146096
-1.36779e-06
0.146096
-1.70223e-07
0.146094
1.23404e-06
0.146091
1.53539e-06
0.14609
2.85242e-07
0.146091
-1.06091e-06
0.146094
-9.8431e-07
0.146096
5.44854e-07
0.146096
1.90946e-06
0.146094
1.64027e-06
0.146092
8.30018e-08
0.146092
-1.17764e-06
0.146094
-1.17104e-06
0.146095
-3.2624e-07
0.146095
3.05788e-07
0.146094
1.81672e-07
0.146093
-2.00872e-07
0.146093
-1.78973e-07
0.146093
2.58569e-07
0.146094
5.28102e-07
0.146094
2.656e-07
0.146094
-3.04089e-07
0.146094
-7.20421e-07
0.146095
-8.53461e-07
0.146095
-9.11843e-07
0.146095
-1.06206e-06
0.146095
-1.14564e-06
0.146095
-9.59416e-07
0.146095
-5.20662e-07
0.146095
-1.51625e-07
0.146095
-1.33324e-07
0.146095
-3.57032e-07
0.146096
-4.8874e-07
0.146096
-2.83694e-07
0.146096
1.46508e-07
0.146096
4.64871e-07
0.146096
4.32739e-07
0.146095
1.11127e-07
0.146096
-3.6665e-07
0.146096
-6.87836e-07
0.146097
-7.71018e-07
0.146097
-6.45497e-07
0.146097
-2.83869e-07
0.146096
2.12863e-07
0.146096
6.48814e-07
0.146095
7.97453e-07
0.146095
6.07881e-07
0.146095
3.18732e-07
0.146096
3.14707e-07
0.146096
6.94905e-07
0.146095
1.12276e-06
0.146094
1.17118e-06
0.146093
7.1974e-07
0.146094
1.15537e-07
0.146095
-1.43247e-07
0.146095
1.78767e-07
0.146094
8.9024e-07
0.146093
1.59647e-06
0.146091
2.08352e-06
0.14609
2.42543e-06
0.14609
2.75294e-06
0.14609
2.90757e-06
0.14609
2.55131e-06
0.146089
1.56852e-06
0.146088
3.0925e-07
0.146088
-5.08478e-07
0.146088
-3.29831e-07
0.146089
6.64419e-07
0.146088
1.6079e-06
0.146087
1.70376e-06
0.146086
1.01356e-06
0.146086
2.37578e-07
0.146086
6.68299e-08
0.146087
4.78887e-07
0.146087
8.17862e-07
0.146086
5.61581e-07
0.146086
-1.71887e-07
0.146086
-8.61251e-07
0.146087
-1.06742e-06
0.146087
-8.00024e-07
0.146087
-4.25627e-07
0.146087
-1.31084e-07
0.146087
5.8172e-08
0.146087
3.53133e-07
0.146087
7.02893e-07
0.146087
8.52329e-07
0.146086
5.43197e-07
0.146085
-1.86826e-07
0.146086
-9.18285e-07
0.146087
-1.38188e-06
0.146088
-1.66143e-06
0.14609
-2.02566e-06
0.146091
-2.67873e-06
0.146092
-3.30732e-06
0.146092
-3.3951e-06
0.146092
-2.59554e-06
0.146092
-1.09389e-06
0.146091
4.30304e-07
0.146091
1.19614e-06
0.146091
9.26549e-07
0.146092
-1.17576e-07
0.146094
-1.43656e-06
0.146095
-2.53429e-06
0.146096
-3.09076e-06
0.146096
-2.94371e-06
0.146096
-2.10686e-06
0.146096
-8.37159e-07
0.146095
3.27807e-07
0.146096
9.11068e-07
0.146096
5.89554e-07
0.146097
-4.11437e-07
0.146099
-1.62279e-06
0.146099
-2.45796e-06
0.1461
-2.5846e-06
0.1461
-1.97828e-06
0.146099
-8.36579e-07
0.146098
5.37018e-07
0.146098
1.74798e-06
0.146097
2.38075e-06
0.146097
2.19867e-06
0.146097
1.33609e-06
0.146098
2.79435e-07
0.146098
-3.47216e-07
0.146098
-2.40986e-07
0.146097
5.45683e-07
0.146095
1.74542e-06
0.146093
3.09726e-06
0.146091
4.37457e-06
0.14609
5.17849e-06
0.146089
5.13106e-06
0.146088
4.12157e-06
0.146087
2.49862e-06
0.146087
8.75506e-07
0.146088
-2.07067e-07
0.146088
-5.82668e-07
0.146087
-3.90146e-07
0.146087
1.19069e-07
0.146086
6.78774e-07
0.146085
1.25002e-06
0.146085
1.65063e-06
0.146086
1.54164e-06
0.146086
6.95697e-07
0.146086
-6.9132e-07
0.146087
-2.18287e-06
0.146088
-3.31164e-06
0.146089
-3.78928e-06
0.14609
-3.55476e-06
0.146091
-2.85018e-06
0.146091
-2.01248e-06
0.146092
-1.28353e-06
0.146092
-8.20832e-07
0.146093
-5.64817e-07
0.146094
-5.48325e-07
0.146095
-8.27994e-07
0.146096
-1.413e-06
0.146096
-2.12501e-06
0.146096
-2.65933e-06
0.146097
-2.74189e-06
0.146098
-2.29425e-06
0.146098
-1.48505e-06
0.146098
-5.86969e-07
0.146097
2.67474e-07
0.146097
9.79656e-07
0.146096
1.65628e-06
0.146096
2.2563e-06
0.146096
2.63298e-06
0.146095
2.60722e-06
0.146094
2.11293e-06
0.146093
1.30866e-06
0.146092
5.05653e-07
0.146092
-1.35807e-07
0.146092
-4.84175e-07
0.146092
-7.28994e-07
0.146092
-1.05647e-06
0.146092
-1.41383e-06
0.146092
-1.64188e-06
0.146094
-1.70221e-06
0.146095
-1.72068e-06
0.146097
-1.8934e-06
0.146098
-2.26713e-06
0.1461
-2.77817e-06
0.146102
-3.29724e-06
0.146103
-3.70909e-06
0.146105
-3.97302e-06
0.146106
-4.09006e-06
0.146107
-4.0775e-06
0.146108
-3.91772e-06
0.146108
-3.57851e-06
0.146109
-3.06897e-06
0.146109
-2.45137e-06
0.146109
-1.86767e-06
-1.09303e-06
0.146101
2.24693e-06
0.146099
2.34244e-06
0.146096
4.16436e-06
0.146089
4.43702e-06
0.146085
3.32331e-06
0.146083
7.91366e-07
0.146082
2.86868e-06
0.146081
4.81216e-06
0.146076
6.66937e-06
0.14607
7.318e-06
0.146066
3.81997e-06
0.146063
2.15896e-06
0.146059
1.00447e-06
0.146057
-1.11433e-06
0.146057
-2.39729e-06
0.146059
-2.90986e-06
0.14606
-1.47405e-06
0.146062
-1.05488e-06
0.146066
-3.83394e-06
0.146074
-5.35587e-06
0.146081
-2.98579e-06
0.146087
-1.92789e-06
0.146094
-1.76016e-06
0.1461
-1.01602e-08
0.146101
2.28291e-06
0.146098
4.01537e-06
0.146093
4.11666e-06
0.14609
1.85719e-06
0.146089
-7.96766e-07
0.14609
-1.43213e-06
0.14609
-8.24389e-07
0.146089
-1.28447e-06
0.146089
-2.38003e-06
0.146091
-1.80874e-06
0.146091
1.35075e-06
0.146088
3.05996e-06
0.146085
1.08699e-06
0.146085
-1.70637e-06
0.146088
-1.65865e-06
0.146091
1.1309e-07
0.146091
1.51767e-07
0.146092
-9.45017e-07
0.146092
-1.02188e-06
0.146093
2.11573e-07
0.146093
7.76348e-07
0.146094
6.85052e-07
0.146093
6.45472e-07
0.146092
2.76735e-07
0.146091
-1.04048e-06
0.146093
-2.39057e-06
0.146095
-2.46333e-06
0.146098
-1.49584e-06
0.1461
-2.27081e-07
0.1461
4.86085e-07
0.146098
6.33492e-07
0.146096
6.45905e-07
0.146093
6.35145e-07
0.146091
3.79738e-07
0.14609
-2.13088e-07
0.14609
-5.94427e-07
0.146092
-2.89857e-07
0.146093
3.82039e-07
0.146093
5.89665e-07
0.146091
-6.05238e-09
0.146091
-8.46574e-07
0.146093
-9.83884e-07
0.146095
-2.04361e-07
0.146096
7.02432e-07
0.146095
8.90004e-07
0.146094
2.67152e-07
0.146093
-5.3907e-07
0.146093
-7.77472e-07
0.146094
-3.15042e-07
0.146094
3.44034e-07
0.146093
5.79565e-07
0.146093
3.2958e-07
0.146093
-1.18199e-07
0.146094
-3.67286e-07
0.146095
-4.33613e-07
0.146095
-4.99134e-07
0.146095
-6.62403e-07
0.146095
-8.75597e-07
0.146095
-9.97008e-07
0.146095
-9.7539e-07
0.146094
-8.45272e-07
0.146094
-6.8057e-07
0.146094
-5.20797e-07
0.146094
-4.2628e-07
0.146095
-4.3883e-07
0.146095
-5.2752e-07
0.146095
-5.79462e-07
0.146095
-4.79083e-07
0.146096
-1.83852e-07
0.146096
7.90857e-08
0.146096
1.94159e-07
0.146096
-2.76122e-09
0.146096
-3.31154e-07
0.146096
-6.55031e-07
0.146096
-7.00371e-07
0.146096
-4.39157e-07
0.146096
-1.49094e-08
0.146095
4.48805e-07
0.146095
7.87408e-07
0.146095
8.95728e-07
0.146095
7.55449e-07
0.146095
4.49528e-07
0.146095
2.71894e-07
0.146095
5.28334e-07
0.146095
1.12427e-06
0.146095
1.60684e-06
0.146094
1.51458e-06
0.146093
8.50844e-07
0.146093
5.59494e-08
0.146093
-9.91148e-08
0.146093
7.57601e-07
0.146093
2.21614e-06
0.146091
3.51942e-06
0.14609
3.99642e-06
0.146089
3.51451e-06
0.146089
2.49783e-06
0.14609
1.53519e-06
0.146091
9.60447e-07
0.146091
7.74261e-07
0.146089
7.65776e-07
0.146088
8.6972e-07
0.146088
1.16157e-06
0.146088
1.54802e-06
0.146088
1.71508e-06
0.146087
1.40145e-06
0.146087
7.54778e-07
0.146087
2.55486e-07
0.146087
2.46542e-07
0.146087
5.33698e-07
0.146087
6.21801e-07
0.146087
1.95731e-07
0.146086
-6.58123e-07
0.146087
-1.31597e-06
0.146087
-1.28495e-06
0.146087
-6.9262e-07
0.146087
1.6471e-07
0.146087
6.61816e-07
0.146086
7.4356e-07
0.146086
5.95383e-07
0.146087
3.78991e-07
0.146087
1.32123e-07
0.146087
-2.51332e-07
0.146087
-9.52037e-07
0.146088
-1.83881e-06
0.146089
-2.69064e-06
0.14609
-3.28811e-06
0.146091
-3.60809e-06
0.146091
-3.62979e-06
0.146091
-3.27466e-06
0.146091
-2.40948e-06
0.146091
-1.08849e-06
0.146091
2.14533e-07
0.146092
8.22122e-07
0.146092
3.4903e-07
0.146093
-9.9534e-07
0.146094
-2.54998e-06
0.146095
-3.60386e-06
0.146096
-3.77294e-06
0.146096
-3.08878e-06
0.146096
-1.8644e-06
0.146095
-5.34302e-07
0.146095
3.75871e-07
0.146096
5.83279e-07
0.146096
-7.35228e-08
0.146097
-1.29655e-06
0.146098
-2.54915e-06
0.146099
-3.21124e-06
0.146099
-2.92783e-06
0.146099
-1.78514e-06
0.146098
-2.0689e-07
0.146098
1.28913e-06
0.146097
2.28937e-06
0.146097
2.56331e-06
0.146097
2.10818e-06
0.146097
1.17243e-06
0.146097
1.88256e-07
0.146097
-2.52091e-07
0.146097
1.39457e-07
0.146096
1.42995e-06
0.146095
3.14871e-06
0.146093
4.83807e-06
0.146091
6.04931e-06
0.14609
6.46509e-06
0.146089
5.95594e-06
0.146089
4.62585e-06
0.146088
2.83537e-06
0.146088
1.09402e-06
0.146088
-1.49468e-07
0.146088
-5.99576e-07
0.146088
-2.40557e-07
0.146087
6.73851e-07
0.146086
1.52122e-06
0.146086
2.01857e-06
0.146085
1.96485e-06
0.146086
1.27901e-06
0.146086
7.27994e-08
0.146087
-1.39155e-06
0.146088
-2.84291e-06
0.146088
-4.01487e-06
0.146089
-4.64494e-06
0.14609
-4.54043e-06
0.146091
-3.76759e-06
0.146092
-2.6492e-06
0.146092
-1.64189e-06
0.146092
-1.06405e-06
0.146093
-9.90501e-07
0.146093
-1.27936e-06
0.146094
-1.74003e-06
0.146095
-2.24073e-06
0.146096
-2.69316e-06
0.146096
-3.00378e-06
0.146096
-3.05569e-06
0.146097
-2.72797e-06
0.146097
-1.98198e-06
0.146098
-9.094e-07
0.146098
3.7094e-07
0.146097
1.53711e-06
0.146096
2.42811e-06
0.146095
2.97244e-06
0.146095
3.18837e-06
0.146094
3.10372e-06
0.146094
2.70648e-06
0.146093
2.01879e-06
0.146092
1.14788e-06
0.146092
2.60017e-07
0.146092
-4.58758e-07
0.146092
-9.68545e-07
0.146093
-1.36667e-06
0.146093
-1.75439e-06
0.146093
-2.1543e-06
0.146094
-2.54352e-06
0.146096
-2.92634e-06
0.146097
-3.3222e-06
0.146098
-3.73716e-06
0.1461
-4.17809e-06
0.146101
-4.61433e-06
0.146102
-4.98122e-06
0.146104
-5.20104e-06
0.146105
-5.21893e-06
0.146106
-5.03447e-06
0.146106
-4.66293e-06
0.146107
-4.1184e-06
0.146107
-3.43513e-06
0.146108
-2.68226e-06
0.146108
-2.01606e-06
-1.16314e-06
0.146087
7.38513e-07
0.146089
2.73886e-09
0.146094
-9.60661e-07
0.146101
-2.41017e-06
0.146103
1.54402e-06
0.146101
2.47751e-06
0.146104
-3.06771e-07
0.146111
-2.46066e-06
0.146122
-3.60638e-06
0.146129
-3.62297e-07
0.146129
4.29076e-06
0.146124
6.70058e-06
0.146119
6.08826e-06
0.146114
4.41701e-06
0.146107
4.1444e-06
0.146102
2.27206e-06
0.146101
-4.81147e-07
0.1461
-2.40794e-07
0.146095
1.62702e-06
0.146089
4.65674e-07
0.146087
-1.14353e-06
0.146086
-1.10539e-06
0.146086
-1.60786e-06
0.146089
-2.75699e-06
0.146095
-3.81276e-06
0.146102
-3.34435e-06
0.146107
-6.46296e-07
0.146107
2.05364e-06
0.146104
1.96549e-06
0.146101
1.23173e-06
0.146099
2.02015e-06
0.146095
2.44479e-06
0.146091
1.1078e-06
0.14609
-9.16779e-07
0.146093
-7.33844e-07
0.146094
1.24416e-06
0.146093
2.01219e-06
0.146091
5.77733e-07
0.14609
-8.69961e-07
0.146091
-7.60797e-07
0.146091
-7.45872e-08
0.146091
-1.85638e-07
0.14609
-7.86212e-07
0.146092
-1.11805e-06
0.146094
-1.26407e-06
0.146096
-1.29464e-06
0.146097
-7.85032e-07
0.146097
6.29451e-07
0.146094
1.95125e-06
0.146089
2.10413e-06
0.146086
1.28747e-06
0.146084
9.33299e-09
0.146085
-1.25314e-06
0.146087
-1.82703e-06
0.14609
-1.91841e-06
0.146092
-1.62269e-06
0.146094
-7.52163e-07
0.146094
5.02769e-07
0.146092
1.16608e-06
0.146091
5.0863e-07
0.146092
-8.4648e-07
0.146094
-1.48949e-06
0.146095
-7.90678e-07
0.146095
3.20739e-07
0.146093
5.80364e-07
0.146092
-9.00283e-08
0.146093
-7.34259e-07
0.146094
-5.9531e-07
0.146095
2.50311e-08
0.146095
4.19442e-07
0.146094
2.2288e-07
0.146093
-1.19422e-07
0.146093
-1.19071e-07
0.146093
2.49038e-07
0.146093
3.93891e-07
0.146094
-6.06852e-09
0.146094
-6.99993e-07
0.146095
-1.05621e-06
0.146095
-8.68863e-07
0.146095
-4.75041e-07
0.146095
-2.64246e-07
0.146095
-4.23529e-07
0.146094
-6.81099e-07
0.146094
-7.61633e-07
0.146094
-6.5404e-07
0.146094
-5.4817e-07
0.146094
-5.69482e-07
0.146094
-6.79862e-07
0.146094
-7.72219e-07
0.146095
-7.85564e-07
0.146095
-7.56887e-07
0.146095
-7.02509e-07
0.146095
-5.93154e-07
0.146096
-4.00902e-07
0.146096
-2.3766e-07
0.146097
-1.62446e-07
0.146096
-1.98036e-07
0.146096
-2.8303e-07
0.146096
-2.4319e-07
0.146095
1.6771e-08
0.146095
3.43757e-07
0.146095
5.91043e-07
0.146095
6.35726e-07
0.146095
5.75016e-07
0.146095
5.54363e-07
0.146095
6.27748e-07
0.146095
7.60679e-07
0.146094
9.63631e-07
0.146094
1.23082e-06
0.146094
1.48849e-06
0.146094
1.57781e-06
0.146094
1.39124e-06
0.146093
1.01094e-06
0.146092
8.25762e-07
0.146091
1.26324e-06
0.146091
2.30383e-06
0.146091
3.48804e-06
0.146091
4.13565e-06
0.146091
3.8034e-06
0.146091
2.6482e-06
0.146091
1.34761e-06
0.146091
6.54288e-07
0.146091
8.99269e-07
0.14609
1.62749e-06
0.146089
2.18722e-06
0.146088
2.19786e-06
0.146087
1.77776e-06
0.146088
1.30802e-06
0.146088
1.01376e-06
0.146088
8.77984e-07
0.146088
7.81684e-07
0.146087
7.01648e-07
0.146087
6.23676e-07
0.146087
4.76536e-07
0.146087
1.22699e-07
0.146087
-4.85215e-07
0.146087
-1.07112e-06
0.146087
-1.23251e-06
0.146087
-7.77952e-07
0.146087
8.87319e-08
0.146087
8.09867e-07
0.146087
9.87604e-07
0.146087
6.24756e-07
0.146087
1.26821e-08
0.146088
-4.80831e-07
0.146088
-8.07707e-07
0.146088
-1.25516e-06
0.146089
-2.05005e-06
0.146089
-3.08782e-06
0.14609
-3.9768e-06
0.14609
-4.35017e-06
0.146091
-4.06388e-06
0.146091
-3.24818e-06
0.146091
-2.09476e-06
0.14609
-8.76277e-07
0.146091
-1.34934e-08
0.146091
1.04916e-07
0.146092
-6.5464e-07
0.146093
-2.0433e-06
0.146094
-3.50161e-06
0.146095
-4.38577e-06
0.146096
-4.28845e-06
0.146096
-3.22235e-06
0.146096
-1.6383e-06
0.146095
-2.2358e-07
0.146095
4.38417e-07
0.146096
1.66778e-07
0.146096
-8.76634e-07
0.146097
-2.2218e-06
0.146098
-3.321e-06
0.146099
-3.69305e-06
0.146099
-3.07554e-06
0.146098
-1.57734e-06
0.146098
3.18644e-07
0.146097
1.95807e-06
0.146097
2.81722e-06
0.146097
2.73608e-06
0.146097
1.94482e-06
0.146097
9.12464e-07
0.146097
1.27882e-07
0.146097
2.06099e-09
0.146096
7.37682e-07
0.146095
2.32791e-06
0.146094
4.41554e-06
0.146092
6.39368e-06
0.146091
7.59338e-06
0.14609
7.62419e-06
0.146089
6.56289e-06
0.146089
4.82742e-06
0.146089
2.91342e-06
0.146089
1.24511e-06
0.146088
1.01807e-07
0.146088
-2.98024e-07
0.146088
1.23054e-07
0.146087
1.12753e-06
0.146087
2.16909e-06
0.146086
2.72756e-06
0.146086
2.41374e-06
0.146086
1.21057e-06
0.146086
-5.40228e-07
0.146087
-2.30886e-06
0.146088
-3.77702e-06
0.146089
-4.7931e-06
0.14609
-5.28332e-06
0.14609
-5.16316e-06
0.146091
-4.45155e-06
0.146092
-3.36048e-06
0.146092
-2.26042e-06
0.146093
-1.51839e-06
0.146093
-1.34925e-06
0.146093
-1.708e-06
0.146094
-2.35779e-06
0.146095
-3.01201e-06
0.146096
-3.4493e-06
0.146096
-3.56791e-06
0.146096
-3.37277e-06
0.146097
-2.8939e-06
0.146097
-2.13106e-06
0.146097
-1.03701e-06
0.146097
3.71379e-07
0.146097
1.83978e-06
0.146096
3.04143e-06
0.146095
3.7466e-06
0.146094
3.91507e-06
0.146094
3.66857e-06
0.146093
3.1509e-06
0.146093
2.45487e-06
0.146093
1.61933e-06
0.146092
6.89479e-07
0.146092
-2.3e-07
0.146092
-1.02367e-06
0.146092
-1.68029e-06
0.146093
-2.23996e-06
0.146093
-2.76707e-06
0.146094
-3.31927e-06
0.146095
-3.92304e-06
0.146096
-4.55031e-06
0.146098
-5.12004e-06
0.146099
-5.5896e-06
0.1461
-5.95544e-06
0.146102
-6.21268e-06
0.146103
-6.32278e-06
0.146104
-6.22735e-06
0.146105
-5.90025e-06
0.146105
-5.3487e-06
0.146106
-4.60945e-06
0.146106
-3.74752e-06
0.146106
-2.85562e-06
0.146106
-2.08603e-06
-1.13815e-06
0.146085
-7.2123e-07
0.146085
5.49268e-08
0.14608
3.98404e-06
0.146072
5.24464e-06
0.146074
1.42749e-08
0.146078
-1.87753e-06
0.146077
7.54088e-07
0.146071
4.30507e-06
0.146064
3.3338e-06
0.146063
6.72793e-07
0.14607
-2.69931e-06
0.14608
-4.00393e-06
0.146089
-2.40548e-06
0.146094
-1.0208e-06
0.146099
-5.50182e-07
0.146101
-1.41303e-07
0.1461
1.0001e-06
0.146097
2.08265e-06
0.146098
1.56779e-06
0.146098
3.26828e-07
0.146097
-4.41836e-08
0.146095
4.41521e-07
0.146093
3.99503e-07
0.14609
2.12207e-07
0.146087
-7.55755e-07
0.146086
-2.23828e-06
0.146088
-2.72485e-06
0.146091
-1.39903e-06
0.146093
2.47868e-07
0.146094
5.01969e-07
0.146096
2.8357e-07
0.146096
1.64197e-06
0.146095
2.67003e-06
0.146093
9.96718e-07
0.146094
-1.53593e-06
0.146097
-1.71689e-06
0.146099
2.13347e-07
0.146098
1.28451e-06
0.146096
6.16059e-07
0.146095
2.36371e-07
0.146094
9.69612e-07
0.146093
1.24905e-06
0.146092
4.68274e-07
0.146091
-3.82239e-07
0.146091
-1.03096e-06
0.146091
-2.03635e-06
0.146094
-3.09319e-06
0.146097
-2.92262e-06
0.146101
-1.51203e-06
0.146103
7.69541e-08
0.146103
1.04894e-06
0.146102
1.43563e-06
0.146099
1.74588e-06
0.146095
1.99343e-06
0.146091
1.64686e-06
0.146089
7.31422e-07
0.146088
-2.76533e-08
0.146089
-2.76731e-07
0.14609
-1.28007e-07
0.146091
-4.4997e-07
0.146092
-1.42523e-06
0.146092
-2.1259e-06
0.146093
-1.68582e-06
0.146094
-4.28044e-07
0.146094
5.04573e-07
0.146093
4.65262e-07
0.146093
-2.00721e-07
0.146093
-6.96285e-07
0.146094
-6.34582e-07
0.146094
-1.20494e-07
0.146094
3.65137e-07
0.146093
5.33504e-07
0.146093
3.64935e-07
0.146093
-2.15708e-08
0.146094
-4.519e-07
0.146095
-8.62126e-07
0.146095
-1.11593e-06
0.146095
-1.04521e-06
0.146095
-6.45505e-07
0.146095
-1.78289e-07
0.146094
6.26398e-08
0.146094
-6.40652e-08
0.146094
-3.77976e-07
0.146094
-6.229e-07
0.146094
-6.66889e-07
0.146094
-5.97858e-07
0.146094
-5.91453e-07
0.146094
-7.25554e-07
0.146094
-9.46241e-07
0.146094
-1.13873e-06
0.146095
-1.21941e-06
0.146095
-1.15437e-06
0.146096
-9.48707e-07
0.146096
-6.54258e-07
0.146096
-3.61033e-07
0.146096
-1.28202e-07
0.146096
-6.49892e-09
0.146095
4.12923e-08
0.146095
1.35011e-07
0.146095
3.58099e-07
0.146094
6.37932e-07
0.146094
7.86549e-07
0.146094
6.55473e-07
0.146094
3.69058e-07
0.146095
2.3513e-07
0.146095
4.84183e-07
0.146095
1.03733e-06
0.146094
1.58451e-06
0.146093
1.84339e-06
0.146093
1.78126e-06
0.146093
1.58741e-06
0.146093
1.47477e-06
0.146092
1.54752e-06
0.146091