/*--------------------------------*- C++ -*----------------------------------*\
| =========                 |                                                 |
| \\      /  F ield         | OpenFOAM: The Open Source CFD Toolbox           |
|  \\    /   O peration     | Version:  2406                                  |
|   \\  /    A nd           | Website:  www.openfoam.com                      |
|    \\/     M anipulation  |                                                 |
\*---------------------------------------------------------------------------*/
FoamFile
{
    version     2.0;
    format      ascii;
    arch        "LSB;label=32;scalar=64";
    class       volVectorField;
    location    "0.1";
    object      U;
}
// * * * * * * * * * * * * * * * * * * * * * * * * * * * * * * * * * * * * * //

dimensions      [0 1 -1 0 0 0 0];

internalField   nonuniform List<vector> 
6250
(
(13.5054 0.000115518 0)
(23.6839 0.000952413 0)
(20.898 0.00088888 0)
(17.5438 0.000923701 0)
(17.231 0.000449444 0)
(18.1132 0.000136168 0)
(18.5105 -0.000349484 0)
(18.3824 -0.00053003 0)
(18.2237 -2.80301e-05 0)
(18.2093 -6.53281e-05 0)
(18.2506 -0.00040447 0)
(18.2684 -0.000344749 0)
(18.2613 -7.89572e-05 0)
(18.2541 0.000124617 0)
(18.2536 0.000202946 0)
(18.2552 0.000161892 0)
(18.2555 -2.99371e-05 0)
(18.2554 -0.000203609 0)
(18.2555 -0.000256269 0)
(18.2561 -0.000401408 0)
(18.2566 -0.000766762 0)
(18.2579 -0.00100444 0)
(18.2586 -0.000783271 0)
(18.2588 -0.00030134 0)
(18.2587 0.000234853 0)
(18.2585 0.000829399 0)
(18.2572 0.0012758 0)
(18.256 0.00126867 0)
(18.2559 0.000725448 0)
(18.2558 -4.019e-05 0)
(18.2564 -0.000617154 0)
(18.257 -0.000857631 0)
(18.2573 -0.000831942 0)
(18.2573 -0.000674132 0)
(18.2575 -0.00042728 0)
(18.2579 -2.72668e-05 0)
(18.2578 0.000388506 0)
(18.2572 0.000440793 0)
(18.2571 6.59114e-05 0)
(18.2576 -0.000285995 0)
(18.258 -0.000253323 0)
(18.2578 -1.70704e-05 0)
(18.2574 4.85046e-05 0)
(18.2574 -6.50183e-05 0)
(18.2578 -0.000100709 0)
(18.258 6.07742e-05 0)
(18.2578 0.000287493 0)
(18.2575 0.000396292 0)
(18.2572 0.000293957 0)
(18.257 7.18648e-06 0)
(18.257 -0.000327878 0)
(18.2573 -0.000479424 0)
(18.2576 -0.000277192 0)
(18.2578 0.00014799 0)
(18.2575 0.000464031 0)
(18.2573 0.000420425 0)
(18.2573 9.0716e-05 0)
(18.2574 -0.00025485 0)
(18.2576 -0.000444871 0)
(18.2578 -0.000419916 0)
(18.258 -0.000214528 0)
(18.258 9.72939e-05 0)
(18.2579 0.000413359 0)
(18.2575 0.000543992 0)
(18.257 0.000355479 0)
(18.2569 -6.48393e-05 0)
(18.2572 -0.000406353 0)
(18.2576 -0.000392419 0)
(18.2577 -7.65814e-05 0)
(18.2576 0.00021396 0)
(18.2574 0.000233186 0)
(18.2573 1.79466e-05 0)
(18.2575 -0.000191157 0)
(18.2577 -0.000220482 0)
(18.2578 -9.26532e-05 0)
(18.2578 3.40777e-05 0)
(18.2578 5.77799e-05 0)
(18.2577 3.95344e-06 0)
(18.2578 -4.43996e-05 0)
(18.2578 -4.6933e-05 0)
(18.2578 -2.39404e-05 0)
(18.2578 -9.12119e-06 0)
(18.2578 3.98857e-06 0)
(18.2578 2.42617e-05 0)
(18.2578 4.05759e-05 0)
(18.2579 3.48657e-05 0)
(18.2579 -1.01066e-06 0)
(18.2579 -3.2433e-05 0)
(18.2579 -1.85602e-05 0)
(18.2579 2.12162e-05 0)
(18.2579 4.26329e-05 0)
(18.2579 1.74313e-05 0)
(18.2579 -3.71585e-05 0)
(18.258 -7.2152e-05 0)
(18.258 -5.39139e-05 0)
(18.258 -7.83201e-06 0)
(18.258 2.50424e-05 0)
(18.2579 2.68788e-05 0)
(18.2579 8.65876e-06 0)
(18.258 -1.57516e-05 0)
(18.2581 -3.71918e-05 0)
(18.2581 -3.80048e-05 0)
(18.2581 -9.07213e-06 0)
(18.2581 4.11231e-05 0)
(18.258 8.38998e-05 0)
(18.2579 7.90137e-05 0)
(18.2579 2.12725e-05 0)
(18.2578 -5.42874e-05 0)
(18.2579 -9.08416e-05 0)
(18.258 -4.44666e-05 0)
(18.258 4.94489e-05 0)
(18.2578 0.000107673 0)
(18.2577 7.05658e-05 0)
(18.2577 -2.52391e-05 0)
(18.2577 -9.80766e-05 0)
(18.2579 -8.61648e-05 0)
(18.258 -2.69527e-06 0)
(18.2579 7.84015e-05 0)
(18.2577 9.34804e-05 0)
(18.2575 4.53367e-05 0)
(18.2573 -1.02916e-05 0)
(18.2573 -1.48375e-05 0)
(18.2573 3.72714e-05 0)
(18.2573 8.00955e-05 0)
(18.2573 4.73448e-05 0)
(18.2573 -4.67455e-05 0)
(18.2573 -0.000110232 0)
(18.2574 -7.50116e-05 0)
(18.2574 2.97749e-05 0)
(18.2573 0.000104997 0)
(18.2572 8.15192e-05 0)
(18.2571 -5.51429e-06 0)
(18.2571 -6.72593e-05 0)
(18.2572 -4.77489e-05 0)
(18.2572 1.74688e-05 0)
(18.2572 4.82131e-05 0)
(18.2572 1.95912e-06 0)
(18.2573 -6.47883e-05 0)
(18.2573 -4.86557e-05 0)
(18.2573 5.42196e-05 0)
(18.2572 0.000152739 0)
(18.257 0.000146467 0)
(18.257 2.38915e-05 0)
(18.2571 -0.000137979 0)
(18.2573 -0.000226364 0)
(18.2574 -0.000132302 0)
(18.2573 8.29546e-05 0)
(18.2571 0.000257815 0)
(18.2568 0.000269224 0)
(18.2568 0.000139445 0)
(18.2569 -1.07374e-05 0)
(18.257 -0.000125596 0)
(18.2572 -0.000199932 0)
(18.2575 -0.000227341 0)
(18.2578 -0.000166354 0)
(18.2579 -1.47345e-05 0)
(18.2577 0.000155885 0)
(18.2574 0.000254061 0)
(18.2571 0.000242057 0)
(18.2569 0.000142253 0)
(18.2569 -5.29125e-06 0)
(18.2572 -0.000168474 0)
(18.2576 -0.000289863 0)
(18.2579 -0.000273715 0)
(18.2581 -9.09328e-05 0)
(18.2579 0.000141068 0)
(18.2576 0.000291857 0)
(18.2574 0.000282326 0)
(18.2572 0.000155014 0)
(18.2572 -5.79015e-07 0)
(18.2573 -0.000144922 0)
(18.2576 -0.000245587 0)
(18.2579 -0.000263932 0)
(18.2582 -0.000169794 0)
(18.2583 -1.41405e-05 0)
(18.2581 0.00012526 0)
(18.2579 0.000194583 0)
(18.2576 0.000191481 0)
(18.2574 0.000140109 0)
(18.2574 5.38253e-05 0)
(18.2574 -6.3009e-05 0)
(18.2576 -0.000197967 0)
(18.2579 -0.000276482 0)
(18.2581 -0.000211872 0)
(18.2581 -3.8196e-05 0)
(18.2579 0.000134052 0)
(18.2577 0.000195853 0)
(18.2574 0.000136738 0)
(18.2573 4.3678e-05 0)
(18.2572 -7.91566e-06 0)
(18.2571 -2.17198e-05 0)
(18.2571 -4.57965e-05 0)
(18.2573 -0.000109275 0)
(18.2575 -0.000170236 0)
(18.2577 -0.000133369 0)
(18.2577 4.428e-06 0)
(18.2575 0.000155659 0)
(18.2572 0.000211727 0)
(18.2571 0.000140743 0)
(18.257 2.80591e-05 0)
(18.257 -4.27216e-05 0)
(18.2571 -5.58116e-05 0)
(18.2571 -4.91978e-05 0)
(18.2573 -7.33639e-05 0)
(18.2575 -0.000120716 0)
(18.2577 -0.000118747 0)
(18.2578 -1.98771e-05 0)
(18.2577 0.000127994 0)
(18.2575 0.000234135 0)
(18.2573 0.000234456 0)
(18.2571 0.00013667 0)
(18.2571 1.13922e-05 0)
(18.2572 -8.52018e-05 0)
(18.2573 -0.000128875 0)
(18.2575 -0.000132748 0)
(18.2577 -0.000131508 0)
(18.2579 -0.000146599 0)
(18.2582 -0.000152265 0)
(18.2583 -9.42064e-05 0)
(18.2583 3.13278e-05 0)
(18.2582 0.000172098 0)
(18.2579 0.000252701 0)
(18.2577 0.000226369 0)
(18.2575 0.000116023 0)
(18.2575 -6.41013e-06 0)
(18.2575 -8.64841e-05 0)
(18.2576 -0.00012466 0)
(18.2577 -0.000145035 0)
(18.2579 -0.000175416 0)
(18.2581 -0.000231348 0)
(18.2583 -0.000286886 0)
(18.2586 -0.000248034 0)
(18.2587 -7.40047e-05 0)
(18.2586 0.0001451 0)
(18.2583 0.000303367 0)
(18.258 0.000347375 0)
(18.2577 0.000300759 0)
(18.2575 0.000229011 0)
(18.2573 0.000171904 0)
(18.2573 0.000127803 0)
(18.2573 8.03508e-05 0)
(18.2573 1.13445e-05 0)
(18.2575 -7.64394e-05 0)
(18.2578 -0.000167728 0)
(18.2581 -0.000245497 0)
(18.2585 -0.000299031 0)
(18.2589 -0.000327306 0)
(18.2592 -0.000334998 0)
(18.2596 -0.000333217 0)
(18.26 -0.000230642 0)
(13.505 9.09504e-05 0)
(23.6855 0.000559586 0)
(20.9032 0.000744949 0)
(17.551 0.00112901 0)
(17.2391 0.000459817 0)
(18.1201 0.000328913 0)
(18.5179 0.000616696 0)
(18.3899 0.000362216 0)
(18.2315 0.00029616 0)
(18.2167 0.000215413 0)
(18.2583 0.000118426 0)
(18.2771 0.00026713 0)
(18.2698 0.000329935 0)
(18.262 0.000395025 0)
(18.262 0.000388987 0)
(18.2645 0.000286498 0)
(18.2647 0.000119069 0)
(18.2636 -8.09705e-05 0)
(18.2627 -0.000148905 0)
(18.2627 -0.000131699 0)
(18.2608 -0.000254374 0)
(18.2595 -0.000509946 0)
(18.2589 -0.000620139 0)
(18.2592 -0.000612327 0)
(18.2593 -0.000502818 0)
(18.2611 -0.000276104 0)
(18.2631 -2.43918e-05 0)
(18.2642 0.000165982 0)
(18.2649 0.000235351 0)
(18.2644 0.000142822 0)
(18.2635 1.37449e-05 0)
(18.263 3.63477e-05 0)
(18.2623 0.000185546 0)
(18.2618 0.000168211 0)
(18.2611 -8.79543e-05 0)
(18.2611 -0.000233548 0)
(18.262 -4.62967e-05 0)
(18.2625 0.000174683 0)
(18.2622 3.56666e-05 0)
(18.2616 -0.000283407 0)
(18.2615 -0.000286674 0)
(18.2619 5.97535e-05 0)
(18.2619 0.000268883 0)
(18.2615 0.000109472 0)
(18.2614 -0.000149739 0)
(18.2614 -0.000211258 0)
(18.2616 -7.45e-05 0)
(18.2619 0.000122116 0)
(18.2623 0.000289555 0)
(18.2623 0.000332285 0)
(18.2619 0.000145584 0)
(18.2615 -0.000197276 0)
(18.2614 -0.000421906 0)
(18.2616 -0.000361035 0)
(18.262 -9.44887e-05 0)
(18.2623 0.000119445 0)
(18.2624 0.000148039 0)
(18.2623 6.71428e-05 0)
(18.2621 -1.95395e-05 0)
(18.2618 -6.90012e-05 0)
(18.2616 -0.000109145 0)
(18.2617 -0.000122861 0)
(18.2622 -2.33762e-05 0)
(18.2627 0.000178804 0)
(18.263 0.000319926 0)
(18.2626 0.000234567 0)
(18.262 -2.80967e-05 0)
(18.2615 -0.000225628 0)
(18.2617 -0.000190091 0)
(18.2621 -1.32401e-06 0)
(18.2623 0.000137661 0)
(18.2622 9.72419e-05 0)
(18.2619 -6.16807e-05 0)
(18.2617 -0.000179402 0)
(18.2618 -0.000153809 0)
(18.262 -3.1362e-05 0)
(18.262 6.94969e-05 0)
(18.2618 8.24122e-05 0)
(18.2617 3.24624e-05 0)
(18.2617 -1.25845e-05 0)
(18.2617 -2.24187e-05 0)
(18.2617 -1.76997e-05 0)
(18.2618 -2.68878e-05 0)
(18.2619 -5.82843e-05 0)
(18.2621 -8.98701e-05 0)
(18.2622 -9.40931e-05 0)
(18.2622 -6.95707e-05 0)
(18.2621 -3.23673e-05 0)
(18.2621 4.5861e-06 0)
(18.2623 2.43453e-05 0)
(18.2624 2.31952e-05 0)
(18.2624 2.92145e-06 0)
(18.2622 -2.5227e-05 0)
(18.2621 -3.91789e-05 0)
(18.262 -2.09077e-05 0)
(18.2621 1.46892e-05 0)
(18.2622 3.52269e-05 0)
(18.2622 2.19046e-05 0)
(18.2622 -1.96105e-05 0)
(18.2622 -6.44234e-05 0)
(18.2622 -8.51343e-05 0)
(18.2622 -6.61266e-05 0)
(18.2622 -1.19061e-05 0)
(18.2622 5.36677e-05 0)
(18.2623 0.000106405 0)
(18.2623 0.000120968 0)
(18.2623 8.60693e-05 0)
(18.2621 1.04206e-05 0)
(18.262 -6.03321e-05 0)
(18.2618 -6.03026e-05 0)
(18.2619 2.28171e-05 0)
(18.262 0.000126427 0)
(18.2621 0.00015445 0)
(18.2621 7.2975e-05 0)
(18.2619 -5.76321e-05 0)
(18.2617 -0.000125289 0)
(18.2616 -5.4919e-05 0)
(18.2616 0.000119675 0)
(18.2616 0.000281207 0)
(18.2615 0.000321564 0)
(18.2613 0.00021828 0)
(18.261 5.70122e-05 0)
(18.261 -4.21186e-05 0)
(18.261 -3.47235e-05 0)
(18.2612 2.16856e-05 0)
(18.2611 4.20408e-05 0)
(18.261 1.18732e-05 0)
(18.2608 -1.59445e-05 0)
(18.2608 1.28518e-05 0)
(18.2608 8.12504e-05 0)
(18.2609 0.000120696 0)
(18.2608 8.93138e-05 0)
(18.2607 1.14985e-05 0)
(18.2607 -4.73608e-05 0)
(18.2607 -5.25082e-05 0)
(18.2608 -2.4479e-05 0)
(18.2608 -1.87647e-05 0)
(18.2607 -4.51471e-05 0)
(18.2607 -5.09912e-05 0)
(18.2609 -5.25841e-06 0)
(18.2611 6.79356e-05 0)
(18.2612 0.000102854 0)
(18.2611 6.0569e-05 0)
(18.2609 -4.38796e-05 0)
(18.2606 -0.000140307 0)
(18.2605 -0.000117904 0)
(18.2608 2.02704e-05 0)
(18.2611 0.000159233 0)
(18.2613 0.000172259 0)
(18.2615 4.11219e-05 0)
(18.2615 -0.00014373 0)
(18.2617 -0.000300625 0)
(18.2618 -0.000375709 0)
(18.2618 -0.000345933 0)
(18.2617 -0.000202961 0)
(18.2617 1.14353e-05 0)
(18.2619 0.000202075 0)
(18.2621 0.000283262 0)
(18.2623 0.00023055 0)
(18.2623 7.25661e-05 0)
(18.2623 -0.000133443 0)
(18.2623 -0.000319129 0)
(18.2622 -0.000407397 0)
(18.2622 -0.000333121 0)
(18.2624 -0.000113979 0)
(18.2626 0.000129629 0)
(18.2628 0.000272729 0)
(18.2629 0.000262774 0)
(18.2629 0.000137834 0)
(18.2629 -3.94458e-05 0)
(18.2629 -0.000221802 0)
(18.2629 -0.000351338 0)
(18.2628 -0.0003616 0)
(18.2628 -0.000219337 0)
(18.2628 1.16904e-05 0)
(18.263 0.000217715 0)
(18.263 0.000310857 0)
(18.263 0.000278195 0)
(18.2629 0.000169281 0)
(18.2628 4.02351e-05 0)
(18.2627 -8.04733e-05 0)
(18.2625 -0.000178789 0)
(18.2624 -0.000212824 0)
(18.2622 -0.00012683 0)
(18.2622 6.50229e-05 0)
(18.2621 0.000278404 0)
(18.2619 0.000407497 0)
(18.2617 0.00039921 0)
(18.2614 0.000290906 0)
(18.2611 0.000153686 0)
(18.261 3.46894e-05 0)
(18.2609 -5.462e-05 0)
(18.2608 -0.000122829 0)
(18.2607 -0.000161491 0)
(18.2606 -0.000122248 0)
(18.2607 6.93273e-06 0)
(18.2609 0.000162508 0)
(18.2609 0.000248633 0)
(18.2609 0.00021407 0)
(18.2607 9.38626e-05 0)
(18.2607 -4.40823e-05 0)
(18.2608 -0.00014954 0)
(18.2609 -0.000207725 0)
(18.2611 -0.000237872 0)
(18.2611 -0.000248819 0)
(18.2612 -0.000212809 0)
(18.2614 -0.000112052 0)
(18.2617 2.10855e-05 0)
(18.262 0.000129947 0)
(18.2622 0.000163253 0)
(18.2622 0.000110413 0)
(18.2622 -1.04981e-06 0)
(18.2622 -0.000128095 0)
(18.2622 -0.000225946 0)
(18.2623 -0.000266876 0)
(18.2624 -0.000256564 0)
(18.2624 -0.00022145 0)
(18.2624 -0.000172936 0)
(18.2623 -9.73773e-05 0)
(18.2624 1.35874e-05 0)
(18.2626 0.000140809 0)
(18.2627 0.000236663 0)
(18.2627 0.000260157 0)
(18.2626 0.00020628 0)
(18.2623 0.000109846 0)
(18.2621 1.3191e-05 0)
(18.2619 -6.15917e-05 0)
(18.2618 -0.00010938 0)
(18.2616 -0.000140612 0)
(18.2615 -0.000179015 0)
(18.2613 -0.00022746 0)
(18.2612 -0.000219882 0)
(18.2613 -0.000108142 0)
(18.2616 5.16881e-05 0)
(18.262 0.000180543 0)
(18.2623 0.000224423 0)
(18.2627 0.00017944 0)
(18.2629 9.53803e-05 0)
(18.2632 1.32325e-05 0)
(18.2634 -5.69845e-05 0)
(18.2637 -0.000122013 0)
(18.2639 -0.000197845 0)
(18.264 -0.000282607 0)
(18.2641 -0.000361665 0)
(18.2642 -0.000417109 0)
(18.2642 -0.000437378 0)
(18.2642 -0.000422532 0)
(18.2641 -0.000382466 0)
(18.264 -0.000338877 0)
(18.2638 -0.000213751 0)
(13.5052 -0.000141651 0)
(23.6845 -0.000235976 0)
(20.9002 -0.000309012 0)
(17.5469 -0.000507419 0)
(17.2359 -0.000330206 0)
(18.1176 -0.000192899 0)
(18.5168 0.00047487 0)
(18.3869 0.000358423 0)
(18.2296 -0.000150892 0)
(18.2143 -0.000260327 0)
(18.2554 -0.000120301 0)
(18.2743 3.93425e-05 0)
(18.2671 -9.54257e-05 0)
(18.2604 -9.73747e-05 0)
(18.2615 6.08412e-05 0)
(18.2638 0.000284673 0)
(18.2646 0.000547846 0)
(18.2649 0.000526731 0)
(18.2646 0.00042174 0)
(18.2651 0.000598901 0)
(18.2649 0.000863593 0)
(18.2651 0.000793403 0)
(18.2642 0.000617402 0)
(18.2632 0.000367965 0)
(18.2616 -1.41373e-05 0)
(18.2608 -0.000497939 0)
(18.26 -0.000887879 0)
(18.2594 -0.000930202 0)
(18.2599 -0.000570376 0)
(18.2604 -5.87099e-05 0)
(18.2605 0.000267002 0)
(18.2609 0.00037604 0)
(18.2616 0.000497226 0)
(18.2624 0.000555503 0)
(18.2624 0.000267207 0)
(18.2618 -0.000283497 0)
(18.2616 -0.00058022 0)
(18.2619 -0.000299059 0)
(18.2621 0.000207437 0)
(18.2617 0.000375479 0)
(18.2612 0.000198462 0)
(18.2613 8.62756e-05 0)
(18.2617 0.000156253 0)
(18.2619 0.000177075 0)
(18.2617 4.66335e-05 0)
(18.2615 -0.000114368 0)
(18.2613 -0.00021398 0)
(18.2611 -0.000234234 0)
(18.2613 -0.000112399 0)
(18.2618 0.000168559 0)
(18.2621 0.000430806 0)
(18.2622 0.000433955 0)
(18.2618 0.000146204 0)
(18.2613 -0.000225525 0)
(18.2611 -0.000434386 0)
(18.2612 -0.000419435 0)
(18.2614 -0.000295183 0)
(18.2617 -0.000172111 0)
(18.2619 -4.43252e-05 0)
(18.262 9.02275e-05 0)
(18.262 0.000150092 0)
(18.2616 5.21591e-05 0)
(18.2612 -0.000145661 0)
(18.2612 -0.000223645 0)
(18.2615 -3.90867e-05 0)
(18.262 0.000276346 0)
(18.2621 0.000422362 0)
(18.2619 0.000248918 0)
(18.2616 -7.71177e-05 0)
(18.2614 -0.000257996 0)
(18.2616 -0.000177896 0)
(18.2618 1.8443e-05 0)
(18.2619 0.000109635 0)
(18.2618 3.86933e-05 0)
(18.2616 -6.91404e-05 0)
(18.2616 -7.15034e-05 0)
(18.2616 2.51973e-05 0)
(18.2617 0.00010549 0)
(18.2617 8.89529e-05 0)
(18.2617 8.48736e-06 0)
(18.2617 -5.78726e-05 0)
(18.2618 -8.09317e-05 0)
(18.2619 -0.000100994 0)
(18.2619 -0.000146823 0)
(18.2619 -0.000186357 0)
(18.2619 -0.00016607 0)
(18.2619 -8.0179e-05 0)
(18.2619 2.72248e-06 0)
(18.2619 1.43501e-05 0)
(18.2619 -3.11781e-05 0)
(18.262 -6.49158e-05 0)
(18.262 -3.8758e-05 0)
(18.262 3.0067e-05 0)
(18.262 8.17585e-05 0)
(18.262 7.66954e-05 0)
(18.2619 2.66844e-05 0)
(18.2619 -3.09675e-05 0)
(18.262 -7.41851e-05 0)
(18.2621 -9.60749e-05 0)
(18.2621 -8.98695e-05 0)
(18.2621 -5.18298e-05 0)
(18.262 5.28788e-06 0)
(18.262 5.37248e-05 0)
(18.2619 6.74562e-05 0)
(18.2619 5.31803e-05 0)
(18.2619 4.80601e-05 0)
(18.262 7.40287e-05 0)
(18.262 0.000112692 0)
(18.2619 0.000121899 0)
(18.2618 7.85714e-05 0)
(18.2617 1.95762e-05 0)
(18.2617 1.56481e-06 0)
(18.2618 3.93497e-05 0)
(18.2619 8.808e-05 0)
(18.2619 0.000105064 0)
(18.2617 9.34233e-05 0)
(18.2614 0.000106642 0)
(18.2613 0.000194423 0)
(18.2612 0.00033665 0)
(18.2612 0.000434154 0)
(18.2612 0.000386375 0)
(18.2612 0.000191048 0)
(18.261 -3.56791e-05 0)
(18.261 -0.000141158 0)
(18.261 -6.46664e-05 0)
(18.2611 0.000105894 0)
(18.2611 0.000215076 0)
(18.2609 0.00018004 0)
(18.2607 6.22668e-05 0)
(18.2607 -8.71397e-06 0)
(18.2607 2.51333e-05 0)
(18.2609 0.000104098 0)
(18.2609 0.000127364 0)
(18.2608 5.1853e-05 0)
(18.2607 -6.20581e-05 0)
(18.2607 -0.000123204 0)
(18.2608 -0.000102824 0)
(18.2609 -4.96301e-05 0)
(18.2609 -3.32613e-05 0)
(18.2608 -5.46933e-05 0)
(18.2608 -5.93256e-05 0)
(18.2609 -5.55746e-06 0)
(18.2609 8.41315e-05 0)
(18.2609 0.000143718 0)
(18.2608 0.00011573 0)
(18.2607 -4.56173e-07 0)
(18.2606 -0.000120598 0)
(18.2607 -0.00018282 0)
(18.261 -0.000195162 0)
(18.2612 -0.000212993 0)
(18.2613 -0.00027985 0)
(18.2614 -0.000359074 0)
(18.2615 -0.00037934 0)
(18.2615 -0.000298059 0)
(18.2615 -0.000139747 0)
(18.2615 2.26153e-05 0)
(18.2614 0.000116721 0)
(18.2614 0.000111918 0)
(18.2615 2.09944e-05 0)
(18.2617 -0.000121056 0)
(18.2619 -0.000260792 0)
(18.262 -0.000335734 0)
(18.262 -0.000313821 0)
(18.262 -0.000219741 0)
(18.262 -0.00010446 0)
(18.2619 -1.91642e-06 0)
(18.2619 4.98245e-05 0)
(18.262 4.31816e-05 0)
(18.2621 -2.05084e-05 0)
(18.2622 -0.00012119 0)
(18.2624 -0.000210768 0)
(18.2625 -0.000252915 0)
(18.2625 -0.000227348 0)
(18.2624 -0.000134221 0)
(18.2623 1.46429e-05 0)
(18.2623 0.000170687 0)
(18.2622 0.000265072 0)
(18.2622 0.000251332 0)
(18.2622 0.000147287 0)
(18.2622 2.71413e-05 0)
(18.2622 -3.37653e-05 0)
(18.2622 -3.48128e-06 0)
(18.2621 8.45511e-05 0)
(18.262 0.00017733 0)
(18.2618 0.000277359 0)
(18.2615 0.000398933 0)
(18.2613 0.0005228 0)
(18.2612 0.000580604 0)
(18.261 0.000510953 0)
(18.2609 0.000325608 0)
(18.2609 0.000114367 0)
(18.2609 -2.68071e-05 0)
(18.261 -6.18237e-05 0)
(18.2609 -2.88398e-05 0)
(18.2608 9.0753e-06 0)
(18.2608 4.23444e-05 0)
(18.2607 8.69731e-05 0)
(18.2607 0.000143278 0)
(18.2607 0.000173251 0)
(18.2607 0.000116634 0)
(18.2607 -3.2497e-05 0)
(18.2608 -0.000215891 0)
(18.2609 -0.000358816 0)
(18.2611 -0.000410901 0)
(18.2612 -0.000373989 0)
(18.2613 -0.000295555 0)
(18.2614 -0.00022415 0)
(18.2614 -0.000172049 0)
(18.2615 -0.000128074 0)
(18.2616 -8.0477e-05 0)
(18.2617 -4.27117e-05 0)
(18.2619 -5.15167e-05 0)
(18.2619 -0.000117155 0)
(18.262 -0.000215306 0)
(18.262 -0.00029307 0)
(18.2621 -0.000303466 0)
(18.2622 -0.00023873 0)
(18.2622 -0.000138459 0)
(18.2622 -5.59388e-05 0)
(18.2622 -3.00542e-06 0)
(18.2621 4.30444e-05 0)
(18.262 0.000108915 0)
(18.262 0.000198122 0)
(18.262 0.000276213 0)
(18.2619 0.000296818 0)
(18.2618 0.00024385 0)
(18.2617 0.000148013 0)
(18.2616 5.61149e-05 0)
(18.2615 4.0302e-06 0)
(18.2615 -1.07111e-05 0)
(18.2615 -2.53778e-05 0)
(18.2615 -7.76913e-05 0)
(18.2614 -0.000152886 0)
(18.2615 -0.000207004 0)
(18.2616 -0.000218851 0)
(18.2618 -0.000204429 0)
(18.262 -0.00020547 0)
(18.2622 -0.000238607 0)
(18.2624 -0.000295875 0)
(18.2626 -0.00035717 0)
(18.2628 -0.00040496 0)
(18.263 -0.000433437 0)
(18.2632 -0.00044341 0)
(18.2633 -0.000437872 0)
(18.2635 -0.000415766 0)
(18.2635 -0.000373523 0)
(18.2636 -0.000311208 0)
(18.2636 -0.000236233 0)
(18.2636 -0.000167799 0)
(18.2636 -9.30663e-05 0)
(13.507 -1.07143e-05 0)
(23.6859 0.000265496 0)
(20.9026 0.000343082 0)
(17.548 0.000116665 0)
(17.2344 0.000439894 0)
(18.1168 7.68259e-05 0)
(18.5145 -1.45836e-05 0)
(18.3855 0.000300362 0)
(18.2274 0.000769533 0)
(18.2119 0.000896691 0)
(18.2525 0.00036587 0)
(18.2707 -0.000122235 0)
(18.2629 -0.000440419 0)
(18.2548 -0.000553232 0)
(18.2551 -0.000539018 0)
(18.2572 -0.000569026 0)
(18.258 -0.000445428 0)
(18.2579 -0.000332821 0)
(18.2574 -0.00040308 0)
(18.2587 -0.000417704 0)
(18.26 -0.000169391 0)
(18.2603 7.93601e-06 0)
(18.261 0.000187196 0)
(18.2625 0.000430424 0)
(18.2626 0.000627881 0)
(18.2625 0.000822647 0)
(18.2621 0.000885462 0)
(18.2611 0.000582163 0)
(18.2612 7.99697e-05 0)
(18.2613 -0.000228483 0)
(18.2613 -0.000421086 0)
(18.2612 -0.000681166 0)
(18.2609 -0.000780231 0)
(18.2613 -0.000449397 0)
(18.2617 7.0456e-05 0)
(18.2612 0.000293601 0)
(18.2605 8.9546e-05 0)
(18.2605 -0.000141832 0)
(18.2609 -4.61248e-05 0)
(18.2613 0.000131751 0)
(18.2614 4.64129e-05 0)
(18.2614 -0.000168328 0)
(18.2615 -0.000169952 0)
(18.2616 3.42605e-05 0)
(18.2616 0.000223869 0)
(18.2617 0.000295973 0)
(18.2618 0.000234633 0)
(18.2615 1.77419e-05 0)
(18.2614 -0.0003092 0)
(18.2614 -0.000556312 0)
(18.2617 -0.000522836 0)
(18.2621 -0.000216823 0)
(18.2625 0.00014407 0)
(18.2625 0.00035716 0)
(18.2624 0.000354191 0)
(18.2621 0.000209296 0)
(18.2618 1.81582e-05 0)
(18.2615 -0.000165052 0)
(18.2612 -0.000277084 0)
(18.2612 -0.000235758 0)
(18.2614 -3.15488e-05 0)
(18.2616 0.000189727 0)
(18.2616 0.000231215 0)
(18.2615 6.10431e-05 0)
(18.2614 -0.000133507 0)
(18.2615 -0.000154507 0)
(18.2618 -5.37839e-06 0)
(18.262 0.000140474 0)
(18.262 0.000140332 0)
(18.2618 1.63921e-05 0)
(18.2616 -0.000104664 0)
(18.2616 -0.000124185 0)
(18.2618 -5.503e-05 0)
(18.2618 2.18454e-05 0)
(18.2617 4.98077e-05 0)
(18.2616 3.90307e-05 0)
(18.2616 2.38071e-05 0)
(18.2617 1.0108e-05 0)
(18.2618 -1.58551e-05 0)
(18.2618 -6.01392e-05 0)
(18.2618 -0.000105112 0)
(18.2618 -0.000132843 0)
(18.2619 -0.000139178 0)
(18.2619 -0.000130835 0)
(18.2618 -0.00011337 0)
(18.2618 -8.57025e-05 0)
(18.2617 -5.25282e-05 0)
(18.2618 -3.00184e-05 0)
(18.2618 -3.55975e-05 0)
(18.2619 -6.16966e-05 0)
(18.2619 -7.67047e-05 0)
(18.2619 -5.27949e-05 0)
(18.2619 2.64569e-06 0)
(18.262 5.23132e-05 0)
(18.262 5.61418e-05 0)
(18.262 9.00788e-06 0)
(18.262 -5.91725e-05 0)
(18.262 -0.00010723 0)
(18.262 -0.000112232 0)
(18.262 -7.62769e-05 0)
(18.262 -1.53133e-05 0)
(18.2619 5.36411e-05 0)
(18.2619 0.000107933 0)
(18.2619 0.000123364 0)
(18.2619 8.88307e-05 0)
(18.2619 3.27e-05 0)
(18.2619 1.13155e-05 0)
(18.2619 6.15209e-05 0)
(18.2619 0.000154315 0)
(18.2619 0.000208014 0)
(18.2618 0.000163958 0)
(18.2617 4.57777e-05 0)
(18.2616 -5.16484e-05 0)
(18.2616 -4.03747e-05 0)
(18.2617 9.12712e-05 0)
(18.2616 0.000272189 0)
(18.2615 0.000402217 0)
(18.2613 0.000432961 0)
(18.2611 0.000386927 0)
(18.2611 0.000312956 0)
(18.2612 0.000241366 0)
(18.2614 0.000169441 0)
(18.2614 8.96435e-05 0)
(18.2612 2.17086e-05 0)
(18.2611 1.05926e-05 0)
(18.261 8.06888e-05 0)
(18.261 0.000186172 0)
(18.261 0.000237958 0)
(18.2609 0.000185849 0)
(18.2608 7.55355e-05 0)
(18.2608 -1.42664e-06 0)
(18.2608 8.22551e-06 0)
(18.2609 6.78575e-05 0)
(18.2609 9.0638e-05 0)
(18.2609 3.215e-05 0)
(18.2608 -8.18907e-05 0)
(18.2608 -0.000169809 0)
(18.2608 -0.000166546 0)
(18.2609 -8.29738e-05 0)
(18.2609 1.84063e-05 0)
(18.2609 8.14296e-05 0)
(18.2608 9.45921e-05 0)
(18.2608 8.04747e-05 0)
(18.2608 6.17903e-05 0)
(18.2609 3.40956e-05 0)
(18.2609 -2.20142e-05 0)
(18.2609 -9.84876e-05 0)
(18.2609 -0.000186157 0)
(18.261 -0.000271599 0)
(18.2612 -0.000342912 0)
(18.2614 -0.000399455 0)
(18.2614 -0.000427523 0)
(18.2614 -0.000407886 0)
(18.2613 -0.000316674 0)
(18.2613 -0.000154335 0)
(18.2614 2.15055e-05 0)
(18.2614 0.00012587 0)
(18.2615 0.000103562 0)
(18.2616 -3.30209e-05 0)
(18.2617 -0.000216678 0)
(18.2618 -0.000368197 0)
(18.2619 -0.000435416 0)
(18.262 -0.000402103 0)
(18.262 -0.00027848 0)
(18.2619 -0.000103541 0)
(18.2619 5.29096e-05 0)
(18.262 0.000120503 0)
(18.262 6.07043e-05 0)
(18.2621 -9.82336e-05 0)
(18.2622 -0.000266152 0)
(18.2623 -0.000358709 0)
(18.2624 -0.000342239 0)
(18.2624 -0.00023583 0)
(18.2624 -8.019e-05 0)
(18.2623 8.70542e-05 0)
(18.2622 0.000231206 0)
(18.2621 0.000312581 0)
(18.2621 0.000298492 0)
(18.2621 0.000191625 0)
(18.2621 4.70029e-05 0)
(18.2621 -4.9037e-05 0)
(18.2621 -3.24327e-05 0)
(18.2621 9.96376e-05 0)
(18.2619 0.000299216 0)
(18.2617 0.000501699 0)
(18.2615 0.000655339 0)
(18.2613 0.000722432 0)
(18.2612 0.0006852 0)
(18.2611 0.000548859 0)
(18.261 0.00034724 0)
(18.261 0.000137795 0)
(18.261 -2.19659e-05 0)
(18.261 -9.39997e-05 0)
(18.261 -6.43838e-05 0)
(18.2609 3.39531e-05 0)
(18.2609 0.00014352 0)
(18.2607 0.000221095 0)
(18.2607 0.000235609 0)
(18.2607 0.000172791 0)
(18.2608 4.18306e-05 0)
(18.2608 -0.000126451 0)
(18.2609 -0.000296561 0)
(18.261 -0.000441226 0)
(18.2611 -0.000529926 0)
(18.2612 -0.000530706 0)
(18.2613 -0.000441604 0)
(18.2614 -0.000298349 0)
(18.2615 -0.000162319 0)
(18.2615 -8.51467e-05 0)
(18.2616 -7.30194e-05 0)
(18.2616 -0.000109719 0)
(18.2617 -0.000168394 0)
(18.2619 -0.000231909 0)
(18.2619 -0.000293399 0)
(18.262 -0.000342778 0)
(18.262 -0.000362172 0)
(18.2621 -0.000331536 0)
(18.2621 -0.00024413 0)
(18.2622 -0.000110103 0)
(18.2622 4.13833e-05 0)
(18.2622 0.000178126 0)
(18.2621 0.000281779 0)
(18.262 0.000346138 0)
(18.2619 0.000372042 0)
(18.2618 0.000359059 0)
(18.2618 0.000303999 0)
(18.2617 0.00021132 0)
(18.2616 9.88623e-05 0)
(18.2615 -7.00177e-06 0)
(18.2615 -8.6116e-05 0)
(18.2615 -0.000138683 0)
(18.2615 -0.000178493 0)
(18.2616 -0.000210161 0)
(18.2616 -0.000232729 0)
(18.2617 -0.000250526 0)
(18.2618 -0.000272502 0)
(18.262 -0.000306734 0)
(18.2622 -0.000353381 0)
(18.2624 -0.000410173 0)
(18.2626 -0.000470456 0)
(18.2627 -0.000523953 0)
(18.2629 -0.000561015 0)
(18.263 -0.000575934 0)
(18.2632 -0.000569329 0)
(18.2633 -0.00054193 0)
(18.2633 -0.000493271 0)
(18.2634 -0.000425863 0)
(18.2634 -0.000346647 0)
(18.2635 -0.000273257 0)
(18.2635 -0.00016672 0)
(13.5054 0.00018961 0)
(23.6841 0.000164925 0)
(20.901 0.000418606 0)
(17.5487 0.000300104 0)
(17.2373 0.000330879 0)
(18.1183 0.000322888 0)
(18.517 0.00032853 0)
(18.3887 0.000260335 0)
(18.2318 0.00019946 0)
(18.2189 0.000516298 0)
(18.2606 0.000663614 0)
(18.2782 0.000773993 0)
(18.2706 0.000709357 0)
(18.2623 0.000425481 0)
(18.2619 0.000271744 0)
(18.2629 8.72613e-05 0)
(18.2629 -4.61924e-05 0)
(18.263 -6.63454e-05 0)
(18.2624 -0.000156079 0)
(18.2609 -0.000370935 0)
(18.2612 -0.00038444 0)
(18.2609 -0.00031407 0)
(18.2605 -0.000366668 0)
(18.2609 -0.000383454 0)
(18.2613 -0.000350221 0)
(18.2622 -0.000174184 0)
(18.2635 0.0001672 0)
(18.2635 0.000318353 0)
(18.2631 0.000174069 0)
(18.2628 7.52901e-05 0)
(18.2626 0.000142102 0)
(18.2622 0.000149922 0)
(18.2615 -5.49306e-05 0)
(18.2612 -0.000188948 0)
(18.2615 3.6807e-05 0)
(18.2618 0.000395077 0)
(18.2618 0.000396832 0)
(18.2614 3.65591e-05 0)
(18.2612 -0.00022217 0)
(18.2614 -0.000198075 0)
(18.2615 -0.000137447 0)
(18.2613 -0.000179659 0)
(18.2612 -0.000188881 0)
(18.2614 -0.000106642 0)
(18.2616 -4.24951e-05 0)
(18.2619 -1.47039e-05 0)
(18.2621 7.97774e-05 0)
(18.2622 0.00022308 0)
(18.262 0.000269019 0)
(18.2614 0.00014533 0)
(18.2609 -6.74418e-05 0)
(18.2605 -0.000244928 0)
(18.2606 -0.000339436 0)
(18.2608 -0.000361521 0)
(18.2611 -0.000321213 0)
(18.2614 -0.000195752 0)
(18.2617 1.49172e-05 0)
(18.2618 0.000216702 0)
(18.2616 0.000279359 0)
(18.2614 0.000161078 0)
(18.2614 -2.00016e-05 0)
(18.2616 -0.000105109 0)
(18.2618 -6.4428e-05 0)
(18.2619 -8.17251e-06 0)
(18.2617 -2.85593e-05 0)
(18.2615 -8.86137e-05 0)
(18.2615 -9.12421e-05 0)
(18.2617 -1.45037e-05 0)
(18.2618 6.57839e-05 0)
(18.2619 6.86269e-05 0)
(18.2618 -2.12231e-06 0)
(18.2617 -6.40133e-05 0)
(18.2617 -4.53436e-05 0)
(18.2616 3.13062e-05 0)
(18.2616 8.22879e-05 0)
(18.2617 5.24564e-05 0)
(18.2618 -2.85572e-05 0)
(18.2619 -9.21968e-05 0)
(18.2619 -0.000100221 0)
(18.2619 -7.42877e-05 0)
(18.2619 -6.07699e-05 0)
(18.2618 -7.75723e-05 0)
(18.2618 -0.000104122 0)
(18.2618 -0.000111994 0)
(18.2618 -9.72343e-05 0)
(18.2617 -7.91661e-05 0)
(18.2617 -7.33742e-05 0)
(18.2617 -7.67943e-05 0)
(18.2618 -7.93704e-05 0)
(18.2618 -7.7909e-05 0)
(18.2618 -7.36221e-05 0)
(18.2619 -6.44976e-05 0)
(18.2619 -4.78984e-05 0)
(18.262 -2.59352e-05 0)
(18.262 -1.03825e-05 0)
(18.2621 -1.28786e-05 0)
(18.2621 -3.53829e-05 0)
(18.262 -5.625e-05 0)
(18.262 -5.53384e-05 0)
(18.2619 -2.86962e-05 0)
(18.2619 1.40484e-05 0)
(18.2618 5.47352e-05 0)
(18.2618 8.41979e-05 0)
(18.2619 9.93682e-05 0)
(18.2619 9.57019e-05 0)
(18.2619 7.50147e-05 0)
(18.2619 5.67979e-05 0)
(18.2618 7.02916e-05 0)
(18.2617 0.000126485 0)
(18.2618 0.000194492 0)
(18.2618 0.000216519 0)
(18.2618 0.00016159 0)
(18.2617 6.73702e-05 0)
(18.2615 2.00602e-05 0)
(18.2614 8.98252e-05 0)
(18.2614 0.000268133 0)
(18.2614 0.000462616 0)
(18.2614 0.000559031 0)
(18.2614 0.000501076 0)
(18.2613 0.000331893 0)
(18.2613 0.000157841 0)
(18.2613 7.08641e-05 0)
(18.2614 8.78776e-05 0)
(18.2613 0.000153417 0)
(18.2612 0.000203674 0)
(18.261 0.000216615 0)
(18.2609 0.000206412 0)
(18.2609 0.000189907 0)
(18.261 0.000162532 0)
(18.261 0.000117395 0)
(18.261 6.94668e-05 0)
(18.2609 4.54074e-05 0)
(18.2609 5.07872e-05 0)
(18.2609 5.88338e-05 0)
(18.2609 2.87074e-05 0)
(18.2609 -5.53767e-05 0)
(18.2608 -0.000146218 0)
(18.2608 -0.000174419 0)
(18.2608 -0.000111515 0)
(18.2609 6.50433e-06 0)
(18.2609 0.000104491 0)
(18.2609 0.000131068 0)
(18.2608 8.97119e-05 0)
(18.2608 2.26259e-05 0)
(18.2609 -3.02281e-05 0)
(18.261 -7.08674e-05 0)
(18.261 -0.000127663 0)
(18.2611 -0.000228372 0)
(18.2611 -0.000359987 0)
(18.2612 -0.000475265 0)
(18.2613 -0.000531183 0)
(18.2614 -0.000507346 0)
(18.2614 -0.000412956 0)
(18.2613 -0.000266812 0)
(18.2613 -0.000100897 0)
(18.2613 2.87311e-05 0)
(18.2614 6.26719e-05 0)
(18.2615 -2.33279e-05 0)
(18.2616 -0.00019729 0)
(18.2617 -0.000385266 0)
(18.2618 -0.000506688 0)
(18.2619 -0.000513621 0)
(18.262 -0.000404324 0)
(18.262 -0.000222034 0)
(18.2619 -4.15111e-05 0)
(18.2619 6.63092e-05 0)
(18.2619 6.30726e-05 0)
(18.262 -4.89943e-05 0)
(18.2621 -0.000224482 0)
(18.2622 -0.000388045 0)
(18.2623 -0.000460936 0)
(18.2623 -0.000396388 0)
(18.2623 -0.00020991 0)
(18.2623 2.65314e-05 0)
(18.2622 0.00022581 0)
(18.2621 0.000329709 0)
(18.2621 0.000327803 0)
(18.2621 0.00024632 0)
(18.2621 0.000128172 0)
(18.2621 2.2167e-05 0)
(18.2621 -2.10705e-05 0)
(18.2621 4.07397e-05 0)
(18.262 0.000216329 0)
(18.2618 0.000470123 0)
(18.2617 0.000722011 0)
(18.2615 0.000883292 0)
(18.2613 0.000902194 0)
(18.2612 0.000785814 0)
(18.2611 0.000584475 0)
(18.2611 0.000358475 0)
(18.2611 0.000155304 0)
(18.261 6.8631e-06 0)
(18.261 -5.95648e-05 0)
(18.261 -2.0747e-05 0)
(18.2609 9.73413e-05 0)
(18.2609 0.000230901 0)
(18.2608 0.00031277 0)
(18.2607 0.00029148 0)
(18.2607 0.000159599 0)