/*--------------------------------*- C++ -*----------------------------------*\
| =========                 |                                                 |
| \\      /  F ield         | OpenFOAM: The Open Source CFD Toolbox           |
|  \\    /   O peration     | Version:  2406                                  |
|   \\  /    A nd           | Website:  www.openfoam.com                      |
|    \\/     M anipulation  |                                                 |
\*---------------------------------------------------------------------------*/
FoamFile
{
    version     2.0;
    format      ascii;
    arch        "LSB;label=32;scalar=64";
    class       volVectorField;
    location    "0.1";
    object      U;
}
// * * * * * * * * * * * * * * * * * * * * * * * * * * * * * * * * * * * * * //

dimensions      [0 1 -1 0 0 0 0];

internalField   nonuniform List<vector> 
6250
(
(0.19164 0.00580832 0)
(0.248822 0.0168897 0)
(0.185017 0.0167763 0)
(0.151929 0.0129733 0)
(0.150046 0.0104667 0)
(0.148361 0.00911839 0)
(0.14046 0.00770948 0)
(0.131969 0.00607261 0)
(0.125507 0.00460858 0)
(0.120352 0.00352598 0)
(0.115697 0.00277928 0)
(0.111398 0.00227843 0)
(0.107467 0.00197681 0)
(0.103817 0.00184801 0)
(0.100316 0.00186308 0)
(0.0968553 0.00199374 0)
(0.0933449 0.00221918 0)
(0.0897006 0.00252594 0)
(0.0858325 0.0029051 0)
(0.0816401 0.00335011 0)
(0.0770103 0.00385499 0)
(0.0718145 0.00441285 0)
(0.0659079 0.00501665 0)
(0.0591307 0.00566665 0)
(0.0513021 0.0063915 0)
(0.0421771 0.00727804 0)
(0.0311866 0.00860556 0)
(0.0176371 0.0108746 0)
(0.00316009 0.0164886 0)
(0.00617812 0.00858989 0)
(0.00705175 0.00362431 0)
(0.00844297 0.00153859 0)
(0.0100762 0.000988874 0)
(0.0109159 0.000963282 0)
(0.010846 0.000858324 0)
(0.0108796 0.00015729 0)
(0.0119227 -0.00077364 0)
(0.0138645 -0.00142237 0)
(0.0160726 -0.00149482 0)
(0.0180396 -0.00141332 0)
(0.0196322 -0.00135981 0)
(0.0208783 -0.00121048 0)
(0.021866 -0.000896083 0)
(0.0228988 -0.000716637 0)
(0.0243213 -0.000706293 0)
(0.0261154 -0.000699449 0)
(0.0279844 -0.000542987 0)
(0.0296427 -0.000344656 0)
(0.0310868 -0.000273465 0)
(0.032472 -0.000342932 0)
(0.0339161 -0.00045943 0)
(0.0353926 -0.00053236 0)
(0.0368426 -0.000563104 0)
(0.0382101 -0.000554998 0)
(0.0394769 -0.000527836 0)
(0.0406268 -0.000486249 0)
(0.041654 -0.000438153 0)
(0.0425581 -0.000386959 0)
(0.0433458 -0.000337755 0)
(0.0440273 -0.000292249 0)
(0.0446143 -0.000252105 0)
(0.0451187 -0.000217311 0)
(0.0455514 -0.000187178 0)
(0.0459224 -0.000160946 0)
(0.0462402 -0.000137889 0)
(0.0465122 -0.00011819 0)
(0.0467457 -0.000101779 0)
(0.0469463 -8.76692e-05 0)
(0.0471187 -7.54711e-05 0)
(0.0472672 -6.50087e-05 0)
(0.0473953 -5.61238e-05 0)
(0.047506 -4.86019e-05 0)
(0.0476015 -4.23079e-05 0)
(0.047684 -3.71346e-05 0)
(0.0477555 -3.24812e-05 0)
(0.0478174 -2.79372e-05 0)
(0.0478709 -2.39207e-05 0)
(0.0479173 -2.05153e-05 0)
(0.0479574 -1.74119e-05 0)
(0.0479921 -1.45933e-05 0)
(0.048022 -1.26249e-05 0)
(0.0480482 -1.13125e-05 0)
(0.0480711 -9.96457e-06 0)
(0.0480911 -8.70555e-06 0)
(0.0481085 -7.62683e-06 0)
(0.0481237 -6.78738e-06 0)
(0.0481369 -6.21697e-06 0)
(0.0481485 -5.43636e-06 0)
(0.0481585 -4.49648e-06 0)
(0.0481672 -3.80501e-06 0)
(0.0481749 -3.25007e-06 0)
(0.0481816 -2.56617e-06 0)
(0.0481874 -2.14545e-06 0)
(0.0481926 -2.04843e-06 0)
(0.0481971 -1.92723e-06 0)
(0.048201 -1.89256e-06 0)
(0.0482046 -1.87753e-06 0)
(0.0482077 -1.61937e-06 0)
(0.0482104 -1.2662e-06 0)
(0.0482127 -1.03211e-06 0)
(0.0482148 -7.84209e-07 0)
(0.0482166 -5.62529e-07 0)
(0.0482182 -4.91967e-07 0)
(0.0482197 -5.47587e-07 0)
(0.0482212 -5.00967e-07 0)
(0.0482224 -3.265e-07 0)
(0.0482235 -3.14847e-07 0)
(0.0482245 -7.61873e-07 0)
(0.0482255 -5.85257e-07 0)
(0.0482263 -4.19039e-07 0)
(0.0482269 -1.36793e-07 0)
(0.0482275 -3.15931e-08 0)
(0.0482279 -9.80511e-09 0)
(0.0482283 -3.93885e-08 0)
(0.0482288 4.90612e-09 0)
(0.0482291 3.53425e-07 0)
(0.0482292 3.42898e-07 0)
(0.0482293 7.61193e-08 0)
(0.0482294 6.83794e-10 0)
(0.0482295 2.15449e-08 0)
(0.0482296 1.95948e-08 0)
(0.0482297 1.37677e-08 0)
(0.0482298 -2.60292e-08 0)
(0.0482299 -6.77884e-08 0)
(0.0482301 -6.33189e-08 0)
(0.0482303 -9.81548e-08 0)
(0.0482305 3.39583e-08 0)
(0.0482307 1.05907e-07 0)
(0.0482309 -6.58304e-09 0)
(0.048231 -1.09464e-07 0)
(0.0482312 -1.25825e-07 0)
(0.0482314 -1.26705e-07 0)
(0.0482315 -1.02321e-07 0)
(0.0482316 -7.99314e-08 0)
(0.0482317 -6.30077e-08 0)
(0.0482317 -4.07158e-08 0)
(0.0482317 3.25024e-08 0)
(0.0482317 8.37362e-08 0)
(0.0482316 1.92657e-07 0)
(0.0482316 7.8649e-08 0)
(0.0482316 1.24984e-07 0)
(0.0482317 8.42125e-08 0)
(0.0482317 9.12922e-08 0)
(0.0482318 5.47581e-08 0)
(0.0482319 4.46994e-08 0)
(0.0482321 4.35959e-08 0)
(0.0482322 7.70134e-08 0)
(0.0482324 -8.22705e-08 0)
(0.0482326 -1.06002e-07 0)
(0.0482329 -7.90892e-08 0)
(0.0482331 -4.65012e-09 0)
(0.0482334 2.54243e-08 0)
(0.0482336 3.31079e-08 0)
(0.0482339 5.42436e-08 0)
(0.0482342 1.19566e-07 0)
(0.0482344 1.41292e-07 0)
(0.0482347 2.77371e-08 0)
(0.0482351 -6.53947e-09 0)
(0.0482354 -1.66238e-08 0)
(0.0482357 -3.48378e-08 0)
(0.0482361 -5.23937e-08 0)
(0.0482365 -6.57666e-08 0)
(0.0482368 -8.22855e-08 0)
(0.0482372 -9.83713e-08 0)
(0.0482376 -1.14266e-07 0)
(0.048238 -1.15617e-07 0)
(0.0482383 -1.10424e-07 0)
(0.0482386 -1.15506e-07 0)
(0.0482388 -1.76376e-07 0)
(0.0482391 -2.21783e-07 0)
(0.0482394 -1.74865e-07 0)
(0.0482396 -1.22107e-07 0)
(0.0482397 -2.34667e-07 0)
(0.0482399 -3.34473e-07 0)
(0.0482401 -2.55453e-07 0)
(0.0482402 -1.65629e-07 0)
(0.0482403 -6.43551e-08 0)
(0.0482404 -8.02729e-08 0)
(0.0482404 -3.31143e-07 0)
(0.0482405 -3.6437e-07 0)
(0.0482406 -1.95712e-07 0)
(0.0482406 -6.39099e-08 0)
(0.0482406 2.76003e-09 0)
(0.0482405 4.09932e-08 0)
(0.0482405 3.49116e-08 0)
(0.0482405 2.40788e-08 0)
(0.0482405 6.98777e-09 0)
(0.0482405 8.43354e-08 0)
(0.0482405 1.51342e-07 0)
(0.0482404 3.2111e-07 0)
(0.0482403 2.69876e-07 0)
(0.0482401 1.51257e-07 0)
(0.04824 9.66835e-08 0)
(0.0482399 -6.18579e-08 0)
(0.0482398 -6.6718e-08 0)
(0.0482397 6.63204e-08 0)
(0.0482396 1.5184e-07 0)
(0.0482394 3.01598e-07 0)
(0.0482391 4.05815e-07 0)
(0.0482389 3.06113e-07 0)
(0.0482387 1.62682e-07 0)
(0.0482386 1.47425e-07 0)
(0.0482384 1.3895e-07 0)
(0.0482382 2.89346e-08 0)
(0.048238 3.6182e-09 0)
(0.0482379 7.32197e-09 0)
(0.0482377 -1.30481e-08 0)
(0.0482376 -4.956e-08 0)
(0.0482374 -4.34625e-08 0)
(0.0482372 -1.04221e-08 0)
(0.048237 -5.85801e-08 0)
(0.0482367 -1.00636e-07 0)
(0.0482365 -1.10368e-07 0)
(0.0482363 -8.65206e-08 0)
(0.048236 -5.68429e-08 0)
(0.0482357 -5.4284e-08 0)
(0.0482354 -1.52662e-08 0)
(0.048235 6.45796e-08 0)
(0.0482345 1.04537e-07 0)
(0.0482339 1.38066e-07 0)
(0.0482332 1.99963e-07 0)
(0.0482324 2.72582e-07 0)
(0.0482315 3.00873e-07 0)
(0.0482304 3.21905e-07 0)
(0.0482291 3.81402e-07 0)
(0.0482276 4.57065e-07 0)
(0.0482257 5.46676e-07 0)
(0.0482235 6.52012e-07 0)
(0.0482209 7.79453e-07 0)
(0.0482178 9.36349e-07 0)
(0.048214 1.1319e-06 0)
(0.0482094 1.37887e-06 0)
(0.0482039 1.69484e-06 0)
(0.0481972 2.10771e-06 0)
(0.048189 2.65199e-06 0)
(0.048179 3.39025e-06 0)
(0.0481666 4.38022e-06 0)
(0.0481514 5.71327e-06 0)
(0.0481325 7.50773e-06 0)
(0.0481091 9.90662e-06 0)
(0.0480798 1.31154e-05 0)
(0.0480434 1.74123e-05 0)
(0.0479979 2.31909e-05 0)
(0.0479409 3.10055e-05 0)
(0.04787 4.14791e-05 0)
(0.0477826 5.51462e-05 0)
(0.0476736 7.24945e-05 0)
(0.0475272 9.53198e-05 0)
(0.0473288 0.000128387 0)
(0.0472029 0.000152207 0)
(0.207995 0.00503904 0)
(0.292052 0.018653 0)
(0.243141 0.0248992 0)
(0.217154 0.0247488 0)
(0.222222 0.0233817 0)
(0.228345 0.0226414 0)
(0.226591 0.0218065 0)
(0.221888 0.0203898 0)
(0.217665 0.0186769 0)
(0.21378 0.0170412 0)
(0.209555 0.01562 0)
(0.204951 0.0144292 0)
(0.200175 0.013487 0)
(0.195317 0.0128175 0)
(0.190371 0.0124269 0)
(0.185319 0.0123072 0)
(0.180154 0.0124557 0)
(0.174852 0.0128907 0)
(0.169365 0.0136563 0)
(0.163603 0.0148204 0)
(0.15742 0.0164681 0)
(0.150601 0.0186948 0)
(0.142847 0.0216081 0)
(0.133759 0.0253453 0)
(0.122783 0.0301201 0)
(0.10919 0.0362803 0)
(0.0920845 0.044021 0)
(0.0828028 0.0489347 0)
(0.0381698 0.0193193 0)
(0.0241864 -0.00518868 0)
(0.0154613 -0.00153728 0)
(0.0115669 -0.00308227 0)
(0.0110093 -0.00181422 0)
(0.0127623 -6.98846e-05 0)
(0.016722 0.0007133 0)
(0.0216796 -0.00214403 0)
(0.0263409 -0.00487266 0)
(0.0310306 -0.00643775 0)
(0.035684 -0.00621056 0)
(0.0402202 -0.00513869 0)
(0.0453022 -0.00382181 0)
(0.0514044 -0.00284067 0)
(0.0573758 -0.0033555 0)
(0.0621771 -0.00567872 0)
(0.0669288 -0.00821258 0)
(0.0719828 -0.00950621 0)
(0.0768176 -0.00882021 0)
(0.0808852 -0.00719798 0)
(0.0842739 -0.00609235 0)
(0.0875411 -0.00578121 0)
(0.0909039 -0.00573975 0)
(0.0942832 -0.00560927 0)
(0.0974537 -0.00531101 0)
(0.10037 -0.00495839 0)
(0.103 -0.00453905 0)
(0.105362 -0.00408015 0)
(0.107446 -0.00360649 0)
(0.109267 -0.00315168 0)
(0.110841 -0.00273055 0)
(0.112196 -0.00235358 0)
(0.113358 -0.00202205 0)
(0.114355 -0.00173508 0)
(0.115208 -0.00148761 0)
(0.115938 -0.00127478 0)
(0.116565 -0.00109261 0)
(0.117101 -0.000937109 0)
(0.117562 -0.000804503 0)
(0.117957 -0.000691819 0)
(0.118298 -0.00059596 0)
(0.118591 -0.000513679 0)
(0.118844 -0.000443136 0)
(0.119062 -0.000382694 0)
(0.119251 -0.000330886 0)
(0.119414 -0.000286453 0)
(0.119556 -0.000248165 0)
(0.119679 -0.000215289 0)
(0.119785 -0.000186703 0)
(0.119877 -0.000161372 0)
(0.119957 -0.000139308 0)
(0.120027 -0.000120773 0)
(0.120087 -0.000105015 0)
(0.120139 -9.13429e-05 0)
(0.120184 -7.94387e-05 0)
(0.120224 -6.91224e-05 0)
(0.120259 -6.01896e-05 0)
(0.120289 -5.27956e-05 0)
(0.120315 -4.61566e-05 0)
(0.120338 -4.02884e-05 0)
(0.120358 -3.54519e-05 0)
(0.120376 -3.09238e-05 0)
(0.120391 -2.70358e-05 0)
(0.120405 -2.35225e-05 0)
(0.120416 -2.03494e-05 0)
(0.120427 -1.76186e-05 0)
(0.120436 -1.53163e-05 0)
(0.120444 -1.34726e-05 0)
(0.12045 -1.21128e-05 0)
(0.120457 -1.08778e-05 0)
(0.120462 -9.59673e-06 0)
(0.120467 -8.43531e-06 0)
(0.120471 -7.52952e-06 0)
(0.120474 -6.71588e-06 0)
(0.120478 -5.99872e-06 0)
(0.120481 -5.30763e-06 0)
(0.120483 -4.63994e-06 0)
(0.120486 -3.97728e-06 0)
(0.120488 -3.34883e-06 0)
(0.12049 -3.06763e-06 0)
(0.120491 -2.83829e-06 0)
(0.120493 -2.70064e-06 0)
(0.120494 -2.18869e-06 0)
(0.120495 -1.90842e-06 0)
(0.120496 -1.75014e-06 0)
(0.120497 -1.62874e-06 0)
(0.120497 -1.53393e-06 0)
(0.120498 -9.8105e-07 0)
(0.120498 -5.91355e-07 0)
(0.120499 -3.72059e-07 0)
(0.120499 -2.70789e-07 0)
(0.120499 -3.61527e-07 0)
(0.1205 -3.5448e-07 0)
(0.1205 -3.50095e-07 0)
(0.1205 -3.44021e-07 0)
(0.1205 -5.08569e-07 0)
(0.120501 -3.10367e-07 0)
(0.120501 -3.62747e-07 0)
(0.120501 -4.87571e-07 0)
(0.120501 -6.16651e-07 0)
(0.120502 -3.96094e-07 0)
(0.120502 -3.6792e-07 0)
(0.120502 -4.83929e-07 0)
(0.120502 -5.25379e-07 0)
(0.120502 -5.3286e-07 0)
(0.120502 -4.07311e-07 0)
(0.120503 -5.21078e-07 0)
(0.120503 -4.56205e-07 0)
(0.120503 -2.59986e-07 0)
(0.120503 -8.2242e-08 0)
(0.120503 -1.07695e-07 0)
(0.120503 -1.40946e-07 0)
(0.120503 -9.81555e-08 0)
(0.120503 5.30497e-08 0)
(0.120503 6.43723e-09 0)
(0.120504 -7.37534e-08 0)
(0.120504 -1.09067e-07 0)
(0.120504 -1.30973e-07 0)
(0.120504 -2.19936e-07 0)
(0.120505 -3.07013e-07 0)
(0.120505 -3.40332e-07 0)
(0.120505 -3.43143e-07 0)
(0.120505 -3.51349e-07 0)
(0.120506 -3.6059e-07 0)
(0.120506 -3.89759e-07 0)
(0.120506 -4.27941e-07 0)
(0.120507 -4.65343e-07 0)
(0.120507 -5.12688e-07 0)
(0.120507 -4.8295e-07 0)
(0.120508 -4.31356e-07 0)
(0.120508 -4.08579e-07 0)
(0.120508 -4.53617e-07 0)
(0.120509 -4.97772e-07 0)
(0.120509 -5.22136e-07 0)
(0.120509 -5.89054e-07 0)
(0.12051 -6.51679e-07 0)
(0.12051 -6.44833e-07 0)
(0.120511 -5.73156e-07 0)
(0.120511 -5.10424e-07 0)
(0.120511 -4.74881e-07 0)
(0.120511 -4.76988e-07 0)
(0.120512 -5.04735e-07 0)
(0.120512 -4.94497e-07 0)
(0.120512 -3.83542e-07 0)
(0.120512 -3.05734e-07 0)
(0.120512 -3.12645e-07 0)
(0.120512 -2.81143e-07 0)
(0.120512 -2.32139e-07 0)
(0.120512 -1.62746e-07 0)
(0.120512 -9.62102e-08 0)
(0.120512 -8.78446e-08 0)
(0.120512 -7.98705e-08 0)
(0.120512 3.86641e-08 0)
(0.120512 1.92432e-07 0)
(0.120512 2.48939e-07 0)
(0.120513 3.23791e-07 0)
(0.120513 1.90054e-07 0)
(0.120513 8.76846e-08 0)
(0.120513 -5.20366e-08 0)
(0.120513 1.31462e-07 0)
(0.120513 2.82224e-07 0)
(0.120513 5.30332e-07 0)
(0.120513 9.07089e-07 0)
(0.120513 5.40394e-07 0)
(0.120513 3.31145e-07 0)
(0.120513 4.07522e-07 0)
(0.120513 4.65308e-07 0)
(0.120512 4.19429e-07 0)
(0.120512 3.71296e-07 0)
(0.120512 3.56905e-07 0)
(0.120512 4.09638e-07 0)
(0.120512 2.30713e-07 0)
(0.120512 1.53971e-07 0)
(0.120512 3.68784e-07 0)
(0.120512 6.09036e-07 0)
(0.120511 4.89001e-07 0)
(0.120511 3.31323e-07 0)
(0.120511 3.19992e-07 0)
(0.12051 3.70835e-07 0)
(0.12051 3.74988e-07 0)
(0.12051 4.31442e-07 0)
(0.120509 5.79831e-07 0)
(0.120509 7.71163e-07 0)
(0.120508 9.93556e-07 0)
(0.120508 9.16347e-07 0)
(0.120507 8.56907e-07 0)
(0.120506 1.01247e-06 0)
(0.120505 1.2428e-06 0)
(0.120504 1.51004e-06 0)
(0.120503 1.79896e-06 0)
(0.120502 2.0982e-06 0)
(0.120501 2.44257e-06 0)
(0.120499 2.88834e-06 0)
(0.120497 3.43802e-06 0)
(0.120494 4.08503e-06 0)
(0.120492 4.84614e-06 0)
(0.120488 5.75162e-06 0)
(0.120484 6.83056e-06 0)
(0.12048 8.12141e-06 0)
(0.120474 9.6647e-06 0)
(0.120467 1.15323e-05 0)
(0.120459 1.38046e-05 0)
(0.12045 1.65776e-05 0)
(0.120438 1.9972e-05 0)
(0.120425 2.41401e-05 0)
(0.120409 2.92768e-05 0)
(0.120389 3.56261e-05 0)
(0.120365 4.35189e-05 0)
(0.120337 5.33293e-05 0)
(0.120303 6.5523e-05 0)
(0.120262 8.07173e-05 0)
(0.120213 9.96337e-05 0)
(0.120154 0.000123153 0)
(0.120083 0.000152232 0)
(0.119999 0.000188073 0)
(0.1199 0.000232063 0)
(0.119783 0.000285387 0)
(0.119651 0.00034859 0)
(0.119497 0.000421353 0)
(0.119305 0.000498282 0)
(0.119057 0.000561441 0)
(0.119006 0.000573361 0)
(0.209754 0.0015636 0)
(0.292167 0.00695161 0)
(0.239624 0.0113746 0)
(0.214485 0.014089 0)
(0.223476 0.0160172 0)
(0.233906 0.0177072 0)
(0.236084 0.0190133 0)
(0.235218 0.0197925 0)
(0.234875 0.0201714 0)
(0.234731 0.02035 0)
(0.233904 0.0204544 0)
(0.232285 0.0205542 0)
(0.230092 0.0207066 0)
(0.227445 0.0209574 0)
(0.224366 0.021331 0)
(0.220878 0.0218382 0)
(0.217036 0.0224993 0)
(0.212901 0.0233694 0)
(0.208525 0.0245555 0)
(0.203938 0.0262231 0)
(0.199136 0.0285925 0)
(0.194068 0.0319309 0)
(0.188621 0.0365477 0)
(0.18262 0.0428086 0)
(0.175825 0.0511813 0)
(0.167995 0.0623382 0)
(0.158253 0.0772236 0)
(0.14799 0.0963904 0)
(0.136257 0.10415 0)
(0.0944942 0.0330424 0)
(0.0420498 0.0139531 0)
(0.0566331 -0.000858995 0)
(0.052745 -0.0116905 0)
(0.0296696 -0.00717965 0)
(0.021265 -0.00213011 0)
(0.0278923 -0.00754667 0)
(0.0308978 -0.00924722 0)
(0.0325034 -0.0107229 0)
(0.034555 -0.00915397 0)
(0.0382178 -0.00834208 0)
(0.0441638 -0.00952152 0)
(0.056854 -0.0108718 0)
(0.0795558 -0.00980272 0)
(0.0948137 -0.0117203 0)
(0.103837 -0.0137622 0)
(0.111945 -0.0145274 0)
(0.120245 -0.0138497 0)
(0.126966 -0.0129629 0)
(0.13119 -0.0137921 0)
(0.13505 -0.0149121 0)
(0.139077 -0.0150881 0)
(0.142935 -0.013986 0)
(0.14654 -0.0127133 0)
(0.149858 -0.0115124 0)
(0.15294 -0.0103867 0)
(0.155713 -0.00923853 0)
(0.158157 -0.00810608 0)
(0.160264 -0.00703494 0)
(0.162078 -0.0060671 0)
(0.163628 -0.00520977 0)
(0.164953 -0.0044647 0)
(0.166086 -0.00382289 0)
(0.167054 -0.00327353 0)
(0.167883 -0.00280453 0)
(0.168594 -0.00240427 0)
(0.169204 -0.00206317 0)
(0.169729 -0.00177255 0)
(0.170181 -0.00152464 0)
(0.17057 -0.0013129 0)
(0.170906 -0.00113231 0)
(0.171196 -0.000977807 0)
(0.171447 -0.000845084 0)
(0.171664 -0.000731094 0)
(0.171852 -0.000632945 0)
(0.172015 -0.000548236 0)
(0.172157 -0.000475147 0)
(0.17228 -0.000412053 0)
(0.172387 -0.000357428 0)
(0.17248 -0.000309997 0)
(0.172561 -0.000269135 0)
(0.172632 -0.000234032 0)
(0.172693 -0.000203912 0)
(0.172747 -0.000177765 0)
(0.172793 -0.000154766 0)
(0.172834 -0.000134762 0)
(0.17287 -0.000117907 0)
(0.172901 -0.00010264 0)
(0.172927 -8.94973e-05 0)
(0.172951 -7.79473e-05 0)
(0.172971 -6.77274e-05 0)
(0.172989 -5.93637e-05 0)
(0.173005 -5.20488e-05 0)
(0.173018 -4.56153e-05 0)
(0.173031 -3.99994e-05 0)
(0.173041 -3.50003e-05 0)
(0.173051 -3.06494e-05 0)
(0.173059 -2.71414e-05 0)
(0.173066 -2.40994e-05 0)
(0.173072 -2.12403e-05 0)
(0.173077 -1.85178e-05 0)
(0.173082 -1.61957e-05 0)
(0.173086 -1.43783e-05 0)
(0.17309 -1.29237e-05 0)
(0.173094 -1.15902e-05 0)
(0.173097 -1.03936e-05 0)
(0.1731 -9.30113e-06 0)
(0.173102 -8.22933e-06 0)
(0.173105 -7.30259e-06 0)
(0.173106 -6.75958e-06 0)
(0.173108 -5.84608e-06 0)
(0.173109 -5.03121e-06 0)
(0.173111 -4.26295e-06 0)
(0.173112 -3.53515e-06 0)
(0.173113 -3.00618e-06 0)
(0.173113 -2.79248e-06 0)
(0.173114 -2.62242e-06 0)
(0.173115 -2.41019e-06 0)
(0.173116 -1.9513e-06 0)
(0.173116 -1.6374e-06 0)
(0.173117 -1.42745e-06 0)
(0.173118 -1.22708e-06 0)
(0.173118 -1.06003e-06 0)
(0.173118 -9.08507e-07 0)
(0.173118 -9.32413e-07 0)
(0.173119 -5.55601e-07 0)
(0.173119 -1.94046e-07 0)
(0.173119 -1.92933e-07 0)
(0.173119 -7.80753e-07 0)
(0.173119 -9.19276e-07 0)
(0.17312 -7.78056e-07 0)
(0.17312 -8.51172e-07 0)
(0.17312 -8.61897e-07 0)
(0.17312 -9.88389e-07 0)
(0.17312 -9.57174e-07 0)
(0.17312 -1.02395e-06 0)
(0.17312 -9.09265e-07 0)
(0.173121 -6.48075e-07 0)
(0.173121 -2.44545e-07 0)
(0.173121 5.91453e-09 0)
(0.173121 1.49527e-07 0)
(0.173121 4.45206e-08 0)
(0.173121 7.9855e-08 0)
(0.173121 -1.16979e-09 0)
(0.173122 -7.94265e-08 0)
(0.173122 -1.17523e-07 0)
(0.173122 -1.06458e-07 0)
(0.173122 -1.6781e-07 0)
(0.173122 -1.24572e-07 0)
(0.173123 -2.29529e-07 0)
(0.173123 -2.68509e-07 0)
(0.173123 -3.04408e-07 0)
(0.173123 -3.26047e-07 0)
(0.173124 -3.50931e-07 0)
(0.173124 -3.83263e-07 0)
(0.173124 -4.29639e-07 0)
(0.173125 -4.94608e-07 0)
(0.173125 -4.42314e-07 0)
(0.173125 -4.34882e-07 0)
(0.173126 -4.33741e-07 0)
(0.173126 -4.86344e-07 0)
(0.173126 -5.47195e-07 0)
(0.173127 -6.02044e-07 0)
(0.173127 -6.66795e-07 0)
(0.173128 -7.06545e-07 0)
(0.173128 -7.00166e-07 0)
(0.173128 -6.4384e-07 0)
(0.173128 -5.98216e-07 0)
(0.173129 -5.51945e-07 0)
(0.173129 -4.97781e-07 0)
(0.173129 -4.41155e-07 0)
(0.173129 -3.9348e-07 0)
(0.173129 -3.36656e-07 0)
(0.173129 -2.85005e-07 0)
(0.173129 -2.48288e-07 0)
(0.173129 -2.02422e-07 0)
(0.173129 -1.43112e-07 0)
(0.173129 -9.99462e-08 0)
(0.173129 -1.19716e-07 0)
(0.173129 -2.08856e-07 0)
(0.173129 -1.93789e-07 0)
(0.173129 -4.34036e-09 0)
(0.17313 1.53371e-07 0)
(0.17313 2.3996e-07 0)
(0.17313 3.3693e-07 0)
(0.17313 4.06027e-07 0)
(0.17313 4.81322e-07 0)
(0.17313 3.44563e-07 0)
(0.17313 1.60803e-07 0)
(0.17313 1.38785e-07 0)
(0.17313 4.73438e-07 0)
(0.173131 7.00781e-07 0)
(0.173131 8.03768e-07 0)
(0.173131 7.85726e-07 0)
(0.173131 6.93096e-07 0)
(0.173131 6.99036e-07 0)
(0.173131 6.64417e-07 0)
(0.173131 7.18541e-07 0)
(0.173131 8.20722e-07 0)
(0.173131 1.04738e-06 0)
(0.17313 8.8273e-07 0)
(0.17313 7.84394e-07 0)
(0.17313 6.80706e-07 0)
(0.17313 6.96004e-07 0)
(0.17313 8.53781e-07 0)
(0.173129 1.02755e-06 0)
(0.173129 1.14357e-06 0)
(0.173128 1.22608e-06 0)
(0.173128 1.33395e-06 0)
(0.173127 1.53129e-06 0)
(0.173127 1.74028e-06 0)
(0.173126 1.87948e-06 0)
(0.173125 2.0031e-06 0)
(0.173124 2.24323e-06 0)
(0.173123 2.54216e-06 0)
(0.173122 2.98643e-06 0)
(0.173121 3.54933e-06 0)
(0.17312 4.14704e-06 0)
(0.173118 4.78205e-06 0)
(0.173117 5.51884e-06 0)
(0.173115 6.46335e-06 0)
(0.173112 7.64501e-06 0)
(0.173109 9.07162e-06 0)
(0.173106 1.0751e-05 0)
(0.173102 1.27276e-05 0)
(0.173098 1.50586e-05 0)
(0.173092 1.78274e-05 0)
(0.173086 2.11279e-05 0)
(0.173079 2.50629e-05 0)
(0.17307 2.97834e-05 0)
(0.173059 3.54622e-05 0)
(0.173047 4.23052e-05 0)
(0.173032 5.05678e-05 0)
(0.173015 6.05581e-05 0)
(0.172994 7.26524e-05 0)
(0.17297 8.73069e-05 0)
(0.172941 0.000105078 0)
(0.172907 0.000126612 0)
(0.172867 0.000152628 0)
(0.17282 0.000184007 0)
(0.172765 0.000221682 0)
(0.172701 0.000266662 0)
(0.172628 0.000319949 0)
(0.172544 0.000382437 0)
(0.172449 0.00045469 0)
(0.172344 0.000536493 0)
(0.172232 0.000626216 0)
(0.172109 0.000720365 0)
(0.171955 0.000809429 0)
(0.171743 0.000872908 0)
(0.171819 0.000879691 0)
(0.211794 0.00120807 0)
(0.295835 0.00532217 0)
(0.241209 0.00885213 0)
(0.213447 0.0112936 0)
(0.221159 0.0131182 0)
(0.231245 0.0147292 0)
(0.233454 0.0161974 0)
(0.23299 0.0174811 0)
(0.233521 0.0186038 0)
(0.234676 0.0196454 0)
(0.235452 0.020682 0)
(0.235645 0.021766 0)
(0.235411 0.0229306 0)
(0.234818 0.0241874 0)
(0.233839 0.0255243 0)
(0.232464 0.0269155 0)
(0.23073 0.0283464 0)
(0.228702 0.0298435 0)
(0.226462 0.0314994 0)
(0.22411 0.0334853 0)
(0.221757 0.0360486 0)
(0.219531 0.0394983 0)
(0.217581 0.0441871 0)
(0.216092 0.0504989 0)
(0.215328 0.0588488 0)
(0.215719 0.0697057 0)
(0.21803 0.0835746 0)
(0.222647 0.101439 0)
(0.232284 0.122648 0)
(0.234868 0.128914 0)
(0.226456 0.111023 0)
(0.178072 0.0380985 0)
(0.154614 0.0175353 0)
(0.156066 0.0249618 0)
(0.150431 -0.00515303 0)
(0.142365 -0.0425041 0)
(0.13666 -0.0417835 0)
(0.135895 -0.0379138 0)
(0.135787 -0.0357596 0)
(0.135927 -0.0437132 0)
(0.139881 -0.0625364 0)
(0.136395 -0.0809621 0)
(0.0921105 -0.0427375 0)
(0.100388 -0.0283385 0)
(0.107558 -0.0251768 0)
(0.116262 -0.0254968 0)
(0.134291 -0.0249634 0)
(0.158201 -0.017267 0)
(0.173651 -0.0147613 0)
(0.180548 -0.017069 0)
(0.18438 -0.0194241 0)
(0.186604 -0.020025 0)
(0.188457 -0.0190291 0)
(0.190356 -0.0177784 0)
(0.192623 -0.0161676 0)
(0.194915 -0.0144192 0)
(0.197026 -0.0126316 0)
(0.198873 -0.0109435 0)
(0.200456 -0.00940976 0)
(0.201819 -0.00806578 0)
(0.202984 -0.00690256 0)
(0.203984 -0.00590646 0)
(0.204842 -0.00505681 0)
(0.20558 -0.00433354 0)
(0.206215 -0.0037179 0)
(0.206763 -0.00319368 0)
(0.207237 -0.00274625 0)
(0.207647 -0.00236468 0)
(0.208001 -0.00203886 0)
(0.208309 -0.00176022 0)
(0.208576 -0.00152128 0)
(0.208807 -0.00131613 0)
(0.209009 -0.00113997 0)
(0.209183 -0.000988145 0)
(0.209336 -0.000856942 0)
(0.209468 -0.000743539 0)
(0.209583 -0.000645367 0)
(0.209684 -0.000560346 0)
(0.209771 -0.000486761 0)
(0.209848 -0.000423155 0)
(0.209915 -0.00036824 0)
(0.209973 -0.000320676 0)
(0.210024 -0.0002795 0)
(0.210068 -0.000243663 0)
(0.210107 -0.000212532 0)
(0.210141 -0.000185056 0)
(0.21017 -0.000161212 0)
(0.210196 -0.000140902 0)
(0.210218 -0.000122995 0)
(0.210238 -0.00010719 0)
(0.210255 -9.38343e-05 0)
(0.21027 -8.22062e-05 0)
(0.210284 -7.21922e-05 0)
(0.210296 -6.32676e-05 0)
(0.210306 -5.52684e-05 0)
(0.210315 -4.82892e-05 0)
(0.210323 -4.25153e-05 0)
(0.21033 -3.75551e-05 0)
(0.210336 -3.31288e-05 0)
(0.210341 -2.91326e-05 0)
(0.210346 -2.56785e-05 0)
(0.21035 -2.2636e-05 0)
(0.210354 -2.00602e-05 0)
(0.210357 -1.78905e-05 0)
(0.21036 -1.60322e-05 0)
(0.210363 -1.43612e-05 0)
(0.210365 -1.28511e-05 0)
(0.210367 -1.13996e-05 0)
(0.210369 -1.01226e-05 0)
(0.21037 -8.85536e-06 0)
(0.210372 -7.82831e-06 0)
(0.210373 -6.80668e-06 0)
(0.210374 -5.79562e-06 0)
(0.210375 -4.94441e-06 0)
(0.210376 -4.27431e-06 0)
(0.210377 -3.9676e-06 0)
(0.210378 -3.7148e-06 0)
(0.210379 -3.37039e-06 0)
(0.210379 -3.08888e-06 0)
(0.21038 -2.58279e-06 0)
(0.21038 -2.16483e-06 0)
(0.210381 -1.74211e-06 0)
(0.210381 -1.38381e-06 0)
(0.210381 -1.04369e-06 0)
(0.210382 -8.49148e-07 0)
(0.210382 -7.70972e-07 0)
(0.210382 -7.25792e-07 0)
(0.210383 -7.16839e-07 0)
(0.210383 -9.02905e-07 0)
(0.210383 -1.02168e-06 0)
(0.210383 -1.06634e-06 0)
(0.210383 -1.24634e-06 0)
(0.210384 -1.3761e-06 0)
(0.210384 -1.56512e-06 0)
(0.210384 -1.3174e-06 0)
(0.210384 -1.12443e-06 0)
(0.210384 -9.53197e-07 0)
(0.210384 -7.00173e-07 0)
(0.210384 -2.91319e-07 0)
(0.210384 -6.46663e-08 0)
(0.210384 -4.86941e-08 0)
(0.210384 -1.70049e-07 0)
(0.210385 -1.75345e-07 0)
(0.210385 -2.04127e-07 0)
(0.210385 -2.4596e-07 0)
(0.210385 -2.73733e-07 0)
(0.210385 -2.26936e-07 0)
(0.210386 -1.99467e-07 0)
(0.210386 -2.38833e-07 0)
(0.210386 -3.02299e-07 0)
(0.210386 -3.41412e-07 0)
(0.210386 -3.72822e-07 0)
(0.210387 -4.05471e-07 0)
(0.210387 -4.40995e-07 0)
(0.210387 -4.69055e-07 0)
(0.210388 -4.82121e-07 0)
(0.210388 -5.48991e-07 0)
(0.210388 -6.34588e-07 0)
(0.210389 -6.87926e-07 0)
(0.210389 -7.12264e-07 0)
(0.210389 -7.4191e-07 0)
(0.21039 -7.80784e-07 0)
(0.21039 -7.85723e-07 0)
(0.21039 -7.55952e-07 0)
(0.21039 -7.33e-07 0)
(0.210391 -7.26383e-07 0)
(0.210391 -7.10278e-07 0)
(0.210391 -6.61724e-07 0)
(0.210391 -5.83407e-07 0)
(0.210391 -4.84516e-07 0)
(0.210391 -3.77112e-07 0)
(0.210392 -3.23455e-07 0)
(0.210392 -2.98045e-07 0)
(0.210392 -2.52618e-07 0)
(0.210392 -2.09559e-07 0)
(0.210392 -1.59163e-07 0)
(0.210392 -1.07692e-07 0)
(0.210392 -6.69125e-08 0)
(0.210392 -8.86089e-08 0)
(0.210392 -9.19443e-08 0)
(0.210392 -4.38194e-08 0)
(0.210392 2.57635e-08 0)
(0.210392 1.05945e-07 0)
(0.210392 1.36856e-07 0)
(0.210392 2.95679e-07 0)
(0.210393 4.563e-07 0)
(0.210393 5.09947e-07 0)
(0.210393 3.55038e-07 0)
(0.210393 1.92257e-07 0)
(0.210393 2.16297e-07 0)
(0.210393 1.06845e-07 0)
(0.210393 5.15196e-07 0)
(0.210394 8.02084e-07 0)
(0.210394 7.45926e-07 0)
(0.210394 6.72931e-07 0)
(0.210394 6.95947e-07 0)
(0.210394 8.55659e-07 0)
(0.210393 9.92606e-07 0)
(0.210393 1.11854e-06 0)
(0.210393 1.03979e-06 0)
(0.210393 1.01938e-06 0)
(0.210393 1.04537e-06 0)
(0.210392 1.12326e-06 0)
(0.210392 1.21183e-06 0)
(0.210392 1.35739e-06 0)
(0.210392 1.71681e-06 0)
(0.210391 2.0387e-06 0)
(0.210391 2.41301e-06 0)
(0.21039 2.65505e-06 0)
(0.210389 2.77889e-06 0)
(0.210389 3.21531e-06 0)
(0.210388 3.54645e-06 0)
(0.210387 4.12681e-06 0)
(0.210386 4.68184e-06 0)
(0.210385 5.38606e-06 0)
(0.210384 6.26852e-06 0)
(0.210382 7.32015e-06 0)
(0.210381 8.44019e-06 0)
(0.210379 9.67612e-06 0)
(0.210377 1.1263e-05 0)
(0.210374 1.32709e-05 0)
(0.210371 1.56818e-05 0)
(0.210368 1.85391e-05 0)
(0.210364 2.19061e-05 0)
(0.210359 2.58704e-05 0)
(0.210353 3.05537e-05 0)
(0.210347 3.61011e-05 0)
(0.210339 4.26877e-05 0)
(0.21033 5.05236e-05 0)
(0.210319 5.98618e-05 0)
(0.210307 7.09994e-05 0)
(0.210292 8.42941e-05 0)
(0.210275 0.000100167 0)
(0.210256 0.000119115 0)
(0.210233 0.000141714 0)
(0.210206 0.000168628 0)
(0.210175 0.000200589 0)
(0.21014 0.000238404 0)
(0.2101 0.000282941 0)
(0.210055 0.000335046 0)
(0.210003 0.000395483 0)
(0.209947 0.000464893 0)
(0.209885 0.000543446 0)
(0.209818 0.000630655 0)
(0.209749 0.000724978 0)
(0.20968 0.000823243 0)
(0.209609 0.000920166 0)
(0.209507 0.00100552 0)
(0.209342 0.00106115 0)
(0.209539 0.00106411 0)
(0.213295 0.000939785 0)
(0.298728 0.00414906 0)
(0.24333 0.00691575 0)
(0.214344 0.00891735 0)
(0.221358 0.0105617 0)
(0.231089 0.0121251 0)
(0.232947 0.0136306 0)
(0.232135 0.0150447 0)
(0.232469 0.0163921 0)
(0.233653 0.0177419 0)
(0.23469 0.019164 0)
(0.235369 0.0207089 0)
(0.235847 0.0224026 0)
(0.236192 0.0242406 0)
(0.236369 0.0261843 0)
(0.236349 0.0281703 0)
(0.236144 0.0301349 0)
(0.235796 0.0320473 0)
(0.235373 0.0339391 0)
(0.234969 0.0359194 0)
(0.234716 0.0381709 0)
(0.234784 0.0409267 0)
(0.235386 0.0444374 0)
(0.236789 0.0489324 0)
(0.239329 0.0545833 0)
(0.243424 0.0614633 0)
(0.249668 0.0694805 0)
(0.258539 0.0782959 0)
(0.271203 0.087812 0)
(0.28615 0.0963244 0)
(0.30231 0.100356 0)
(0.310112 0.0891664 0)
(0.307979 0.0702153 0)
(0.29976 0.0503007 0)
(0.292552 0.0317266 0)
(0.284646 0.0160338 0)
(0.27382 0.00451979 0)
(0.263876 -0.00269666 0)
(0.25776 -0.00634036 0)
(0.253209 -0.00860822 0)
(0.247037 -0.00695024 0)
(0.239095 -0.00520388 0)
(0.238001 -0.0285118 0)
(0.240222 -0.0746527 0)
(0.242766 -0.0839476 0)
(0.246501 -0.097295 0)
(0.23063 -0.0953812 0)
(0.220503 -0.0677347 0)
(0.215463 -0.0457074 0)
(0.214293 -0.0306331 0)
(0.218728 -0.0222816 0)
(0.2216 -0.0191276 0)
(0.222835 -0.0198545 0)
(0.22385 -0.0205626 0)
(0.224669 -0.0197727 0)
(0.2257 -0.0181004 0)
(0.226855 -0.0159999 0)
(0.227977 -0.0138921 0)
(0.228979 -0.0119647 0)
(0.229855 -0.0102612 0)
(0.230625 -0.00879063 0)
(0.231297 -0.00753153 0)
(0.231886 -0.00645845 0)
(0.2324 -0.00554499 0)
(0.23285 -0.00476695 0)
(0.233244 -0.00410364 0)
(0.233589 -0.00353697 0)
(0.233891 -0.00305238 0)
(0.234155 -0.00263715 0)
(0.234386 -0.00228088 0)
(0.234589 -0.00197452 0)
(0.234766 -0.0017109 0)
(0.234921 -0.00148365 0)
(0.235056 -0.00128752 0)
(0.235175 -0.00111813 0)
(0.235279 -0.000971669 0)
(0.23537 -0.00084478 0)
(0.23545 -0.000734771 0)
(0.235519 -0.000639362 0)
(0.23558 -0.000556603 0)
(0.235634 -0.000484829 0)
(0.23568 -0.000422484 0)
(0.235721 -0.000368313 0)
(0.235757 -0.000321185 0)
(0.235789 -0.000280173 0)
(0.235816 -0.000244229 0)
(0.235841 -0.00021342 0)
(0.235862 -0.000186396 0)
(0.23588 -0.000162773 0)
(0.235897 -0.000142286 0)
(0.235911 -0.000124426 0)
(0.235923 -0.000108878 0)
(0.235934 -9.56492e-05 0)
(0.235944 -8.39287e-05 0)
(0.235952 -7.33899e-05 0)
(0.23596 -6.43224e-05 0)
(0.235967 -5.654e-05 0)
(0.235973 -4.97405e-05 0)
(0.235978 -4.3784e-05 0)
(0.235982 -3.86561e-05 0)
(0.235986 -3.42131e-05 0)
(0.23599 -3.02034e-05 0)
(0.235993 -2.67635e-05 0)
(0.235996 -2.39159e-05 0)
(0.235998 -2.13906e-05 0)
(0.236 -1.90578e-05 0)
(0.236002 -1.69578e-05 0)
(0.236004 -1.50594e-05 0)
(0.236005 -1.33462e-05 0)
(0.236007 -1.18025e-05 0)
(0.236008 -1.04226e-05 0)
(0.236009 -9.18295e-06 0)
(0.23601 -8.093e-06 0)
(0.236011 -7.18742e-06 0)
(0.236012 -6.37312e-06 0)
(0.236013 -5.73021e-06 0)
(0.236014 -5.16661e-06 0)
(0.236014 -4.62024e-06 0)
(0.236015 -4.06388e-06 0)
(0.236015 -3.50191e-06 0)
(0.236016 -2.99674e-06 0)
(0.236016 -2.5657e-06 0)
(0.236016 -2.19419e-06 0)
(0.236017 -1.73021e-06 0)
(0.236018 -1.42874e-06 0)
(0.236018 -1.36524e-06 0)
(0.236018 -1.43108e-06 0)
(0.236019 -1.3267e-06 0)
(0.236019 -1.34351e-06 0)
(0.236019 -1.38366e-06 0)
(0.236019 -1.42326e-06 0)
(0.23602 -1.44706e-06 0)
(0.23602 -1.47038e-06 0)
(0.236019 -1.56401e-06 0)
(0.236019 -1.38083e-06 0)
(0.236019 -1.15211e-06 0)
(0.236019 -9.34665e-07 0)
(0.236019 -7.02803e-07 0)
(0.236019 -4.49806e-07 0)
(0.23602 -2.6449e-07 0)
(0.23602 -2.98842e-07 0)
(0.23602 -2.83033e-07 0)
(0.23602 -2.63381e-07 0)
(0.23602 -2.50579e-07 0)
(0.23602 -2.56818e-07 0)
(0.236021 -2.70216e-07 0)
(0.236021 -2.75475e-07 0)
(0.236021 -2.83579e-07 0)
(0.236021 -3.19677e-07 0)
(0.236021 -3.56423e-07 0)
(0.236022 -3.89799e-07 0)
(0.236022 -4.18054e-07 0)
(0.236022 -4.45055e-07 0)
(0.236022 -4.73141e-07 0)
(0.236023 -5.0275e-07 0)