/*--------------------------------*- C++ -*----------------------------------*\
| =========                 |                                                 |
| \\      /  F ield         | OpenFOAM: The Open Source CFD Toolbox           |
|  \\    /   O peration     | Version:  2406                                  |
|   \\  /    A nd           | Website:  www.openfoam.com                      |
|    \\/     M anipulation  |                                                 |
\*---------------------------------------------------------------------------*/
FoamFile
{
    version     2.0;
    format      ascii;
    arch        "LSB;label=32;scalar=64";
    class       surfaceScalarField;
    location    "0.2";
    object      alphaPhi0.glycerin;
}
// * * * * * * * * * * * * * * * * * * * * * * * * * * * * * * * * * * * * * //

dimensions      [0 3 -1 0 0 0 0];

oriented        oriented;

internalField   nonuniform List<scalar> 
12225
(
0
0
0
0
0
0
0
0
0
0
0
0
0
0
0
0
0
0
0
0
0
0
0
0
0
0
0
0
0
0
0
0
0
0
0
0
0
0
0
0
0
0
0
0
0
0
0
0
0
0
0
0
-0
0
-7.05844e-316
-7.01444e-318
-7.23049e-296
-8.19277e-298
-3.11196e-275
-4.03293e-277
-6.39874e-257
-9.51308e-259
-7.23273e-232
-1.23725e-233
-1.28882e-213
-2.54417e-215
-2.17059e-196
-4.95886e-198
-4.5693e-181
-1.21159e-182
-1.82294e-166
-5.62639e-168
-2.3878e-152
-8.60349e-154
-9.47322e-139
-3.99674e-140
-1.31731e-125
-6.52884e-127
-7.98882e-113
-4.66805e-114
-1.81984e-100
-1.25886e-101
-1.2612e-88
-1.03781e-89
-1.44324e-77
-1.42137e-78
-1.302e-67
-1.54805e-68
-3.83751e-57
-5.57329e-58
-2.29135e-47
-4.13196e-48
-1.90323e-40
-4.36607e-41
-7.77971e-35
-2.35834e-35
-1.87148e-30
-8.02466e-31
-1.35958e-27
-9.35823e-28
-4.94973e-26
-8.38441e-26
-9.09206e-26
-1.78423e-25
-2.10586e-25
1.00312e-26
-5.13816e-25
1.4032e-26
-1.1115e-25
-1.43479e-25
3.93613e-07
1.31467e-07
3.19322e-07
7.94798e-08
2.50797e-07
6.85247e-08
2.10884e-07
3.99132e-08
1.99431e-07
1.14524e-08
1.96956e-07
2.47568e-09
1.89966e-07
6.98998e-09
1.77913e-07
1.20528e-08
1.68111e-07
9.80162e-09
1.63654e-07
4.45569e-09
1.63541e-07
1.12217e-10
1.64099e-07
-5.54681e-10
1.62624e-07
1.47417e-09
1.57907e-07
4.71467e-09
1.49894e-07
8.01411e-09
1.39866e-07
1.0028e-08
1.3004e-07
9.82642e-09
1.22408e-07
7.63164e-09
1.17641e-07
4.76693e-09
1.15549e-07
2.0923e-09
1.15847e-07
-2.97574e-10
1.17922e-07
-2.07479e-09
1.20275e-07
-2.35335e-09
1.21262e-07
-9.86747e-10
1.1993e-07
1.3316e-09
1.15605e-07
4.3249e-09
1.08299e-07
7.30553e-09
9.87237e-08
9.57419e-09
8.83011e-08
1.04224e-08
7.95464e-08
8.75461e-09
7.47852e-08
4.76514e-09
7.35914e-08
1.19522e-09
7.35984e-08
-8.51819e-12
7.3391e-08
2.07373e-10
7.32175e-08
1.73488e-10
7.30301e-08
1.87486e-10
7.21346e-08
8.95437e-10
6.99972e-08
2.1374e-09
6.66897e-08
3.30747e-09
6.27058e-08
3.98391e-09
5.84049e-08
4.30084e-09
5.39532e-08
4.45128e-09
4.93976e-08
4.55557e-09
4.48394e-08
4.55809e-09
4.05944e-08
4.24501e-09
3.69473e-08
3.64797e-09
3.39885e-08
2.9588e-09
3.16449e-08
2.34333e-09
2.96986e-08
1.94637e-09
2.79007e-08
1.79781e-09
2.59831e-08
1.91777e-09
2.3797e-08
2.18601e-09
2.14616e-08
2.33423e-09
1.96845e-08
1.77671e-09
1.89225e-08
7.61945e-10
1.91083e-08
-1.84707e-10
1.99193e-08
-8.10596e-10
2.11048e-08
-1.18559e-09
2.2452e-08
-1.34714e-09
2.36727e-08
-1.22076e-09
2.44925e-08
-8.19832e-10
2.47377e-08
-2.4513e-10
2.42999e-08
4.37808e-10
2.31696e-08
1.13022e-09
2.14647e-08
1.7043e-09
1.94698e-08
1.99458e-09
1.75107e-08
1.95848e-09
1.57674e-08
1.74389e-09
1.42125e-08
1.55454e-09
1.27417e-08
1.47064e-09
1.12759e-08
1.46575e-09
9.78975e-09
1.48655e-09
8.30136e-09
1.48855e-09
6.85226e-09
1.44906e-09
5.48661e-09
1.36562e-09
4.24416e-09
1.24246e-09
3.16212e-09
1.08203e-09
2.27558e-09
8.86538e-10
1.61579e-09
6.59724e-10
1.21535e-09
4.00428e-10
1.09685e-09
1.18498e-10
1.33509e-09
-2.38247e-10
1.90732e-09
-5.72261e-10
2.72837e-09
-8.21111e-10
3.72784e-09
-9.9953e-10
4.87842e-09
-1.15062e-09
6.17166e-09
-1.29329e-09
7.58398e-09
-1.41213e-09
9.06304e-09
-1.47906e-09
1.05404e-08
-1.47739e-09
1.19543e-08
-1.41384e-09
1.3263e-08
-1.3087e-09
1.44444e-08
-1.18167e-09
1.54816e-08
-1.03717e-09
1.63575e-08
-8.7598e-10
1.70289e-08
-6.71511e-10
1.74455e-08
-4.16564e-10
1.76026e-08
-1.57125e-10
1.75613e-08
4.12402e-11
1.73955e-08
1.65906e-10
1.71554e-08
2.40035e-10
1.68377e-08
3.17702e-10
1.64085e-08
4.29254e-10
1.58561e-08
5.52682e-10
1.52248e-08
6.31367e-10
1.45832e-08
6.41558e-10
1.39561e-08
6.27159e-10
1.33292e-08
6.26829e-10
1.26543e-08
6.74909e-10
1.18666e-08
7.87692e-10
1.09208e-08
9.45604e-10
9.77193e-09
1.14887e-09
8.43534e-09
1.33659e-09
6.97881e-09
1.45653e-09
5.46674e-09
1.51206e-09
3.9719e-09
1.49481e-09
2.59119e-09
1.3807e-09
1.43031e-09
1.16088e-09
5.61717e-10
8.68591e-10
-1.8749e-11
5.80469e-10
-4.24698e-10
4.0595e-10
-8.59873e-10
4.35175e-10
-1.52528e-09
6.65406e-10
-2.53273e-09
1.00745e-09
-3.74883e-09
1.2161e-09
-4.77888e-09
1.03005e-09
-5.34529e-09
5.66415e-10
-5.37729e-09
3.19991e-11
-5.13901e-09
-2.38277e-10
-4.81372e-09
-3.25297e-10
-4.54745e-09
-2.66263e-10
-4.38577e-09
-1.61682e-10
-4.28775e-09
-9.80222e-11
-4.15032e-09
-1.37431e-10
-4.17632e-09
2.60001e-11
-4.3946e-09
2.18281e-10
-4.94118e-09
5.46584e-10
-5.93864e-09
9.97456e-10
-7.36299e-09
1.42435e-09
-8.99649e-09
1.6335e-09
-1.05034e-08
1.50692e-09
-1.16339e-08
1.13045e-09
-1.23897e-08
7.55797e-10
-1.29299e-08
5.40252e-10
-1.33674e-08
4.37529e-10
-1.36446e-08
2.77104e-10
-1.35333e-08
-1.1113e-10
-1.2721e-08
-8.12524e-10
-1.09538e-08
-1.76719e-09
-8.1523e-09
-2.80145e-09
-4.33401e-09
-3.81819e-09
3.88714e-10
-4.72263e-09
5.8054e-09
-5.4166e-09
1.16379e-08
-5.8324e-09
1.75221e-08
-5.88413e-09
2.3052e-08
-5.52989e-09
2.78159e-08
-4.76525e-09
3.14124e-08
-3.59627e-09
3.35121e-08
-2.0993e-09
3.39938e-08
-4.8174e-10
3.25965e-08
1.39729e-09
3.18891e-08
7.07438e-10
3.45316e-08
-2.64246e-09
4.2721e-08
-8.18959e-09
5.50804e-08
-1.23603e-08
6.79777e-08
-1.28977e-08
7.83177e-08
-1.03431e-08
8.4875e-08
-6.56123e-09
8.8491e-08
-3.61596e-09
9.06357e-08
-2.1443e-09
9.22685e-08
-1.63266e-09
9.44474e-08
-2.17877e-09
9.79643e-08
-3.51684e-09
1.029e-07
-4.9351e-09
1.08558e-07
-5.6584e-09
1.13843e-07
-5.28449e-09
1.17712e-07
-3.8693e-09
1.19682e-07
-1.97002e-09
1.201e-07
-4.17592e-10
1.2071e-07
-6.09832e-10
1.24541e-07
-3.83155e-09
1.33299e-07
-8.75743e-09
1.45274e-07
-1.19752e-08
1.56838e-07
-1.15638e-08
1.65206e-07
-8.36767e-09
1.70159e-07
-4.95384e-09
1.72912e-07
-2.75286e-09
1.74578e-07
-1.66627e-09
1.75493e-07
-9.14592e-10
1.75268e-07
2.24682e-10
1.73165e-07
2.1027e-09
1.68498e-07
4.66754e-09
1.60934e-07
7.56311e-09
1.50765e-07
1.01694e-08
1.18299e-08
0
0
0
0
0
0
0
0
0
0
0
0
0
0
0
0
0
0
0
0
0
0
0
0
0
0
0
0
0
0
0
0
0
0
0
0
0
0
0
0
0
0
0
0
0
0
0
0
0
0
0
0
-0
0
-6.69338e-317
-5.45824e-319
-7.09443e-297
-6.62734e-299
-3.16556e-276
-3.3957e-278
-6.76103e-258
-8.34768e-260
-7.95353e-233
-1.13283e-234
-1.47792e-214
-2.43356e-216
-2.60098e-197
-4.96117e-199
-5.73429e-182
-1.26935e-183
-2.40175e-167
-6.1801e-169
-3.31162e-153
-9.91765e-155
-1.38719e-139
-4.83797e-141
-2.04367e-126
-8.30202e-128
-1.31832e-113
-6.23636e-115
-3.20922e-101
-1.76671e-102
-2.38982e-89
-1.52947e-90
-2.9588e-78
-2.19851e-79
-2.91518e-68
-2.51093e-69
-9.4992e-58
-9.46731e-59
-6.37583e-48
-7.3377e-49
-6.09836e-41
-8.08651e-42
-2.9799e-35
-4.54011e-36
-9.15905e-31
-1.59768e-31
-9.62576e-28
-1.91025e-28
-7.81396e-26
-1.74728e-26
-1.98833e-25
-5.23822e-26
-1.31607e-25
-4.83419e-26
-8.97269e-26
-5.72126e-26
-6.2467e-26
-9.88293e-26
1.50845e-07
5.44122e-09
3.06919e-07
7.22819e-09
6.90528e-07
5.69429e-08
6.35967e-07
1.14957e-07
6.02087e-07
4.53322e-08
5.75976e-07
2.85875e-08
5.28268e-07
5.46976e-08
4.80877e-07
5.94435e-08
4.49116e-07
4.12472e-08
4.33207e-07
2.03225e-08
4.25419e-07
7.86057e-09
4.2008e-07
5.11261e-09
4.12593e-07
8.96182e-09
4.00439e-07
1.68681e-08
3.83246e-07
2.52067e-08
3.63508e-07
2.97664e-08
3.44978e-07
2.83567e-08
3.31049e-07
2.15614e-08
3.22486e-07
1.33308e-08
3.17821e-07
6.75711e-09
3.16841e-07
6.81887e-10
3.19154e-07
-4.46932e-09
3.22312e-07
-4.89503e-09
3.22819e-07
-1.12735e-09
3.18629e-07
5.52151e-09
3.09532e-07
1.34215e-08
2.94095e-07
2.27425e-08
2.74303e-07
2.93665e-08
2.52046e-07
3.2679e-08
2.31747e-07
2.90542e-08
2.20629e-07
1.58829e-08
2.18054e-07
3.77064e-09
2.16934e-07
1.11098e-09
2.13652e-07
3.48905e-09
2.09036e-07
4.79044e-09
2.03273e-07
5.95001e-09
1.95691e-07
8.47715e-09
1.85562e-07
1.2267e-08
1.72929e-07
1.59398e-08
1.59232e-07
1.7681e-08
1.45556e-07
1.79773e-08
1.32276e-07
1.77313e-08
1.19279e-07
1.75522e-08
1.0674e-07
1.70971e-08
9.5706e-08
1.52792e-08
8.69807e-08
1.23732e-08
8.03471e-08
9.59243e-09
7.53404e-08
7.35004e-09
7.16677e-08
5.61906e-09
6.88795e-08
4.58596e-09
6.62645e-08
4.53283e-09
6.30863e-08
5.36417e-09
5.95896e-08
5.831e-09
5.70479e-08
4.31834e-09
5.62785e-08
1.53137e-09
5.69407e-08
-8.46855e-10
5.84241e-08
-2.29403e-09
6.02704e-08
-3.0319e-09
6.23517e-08
-3.4285e-09
6.41256e-08
-2.99462e-09
6.50776e-08
-1.77188e-09
6.49489e-08
-1.16424e-10
6.38033e-08
1.58343e-09
6.15332e-08
3.40025e-09
5.82948e-08
4.9427e-09
5.45778e-08
5.71167e-09
5.10304e-08
5.50587e-09
4.79249e-08
4.84939e-09
4.50935e-08
4.38592e-09
4.23109e-08
4.25325e-09
3.94499e-08
4.32671e-09
3.64861e-08
4.45041e-09
3.34911e-08
4.48349e-09
3.05783e-08
4.36195e-09
2.78492e-08
4.09471e-09
2.53918e-08
3.6998e-09
2.32914e-08
3.18247e-09
2.16147e-08
2.56327e-09
2.03938e-08
1.88053e-09
1.97357e-08
1.05858e-09
1.98719e-08
-1.77273e-11
2.05048e-08
-8.71508e-10
2.16264e-08
-1.69497e-09
2.31452e-08
-2.34129e-09
2.49453e-08
-2.80126e-09
2.69541e-08
-3.15906e-09
2.91363e-08
-3.47527e-09
3.14302e-08
-3.70594e-09
3.37426e-08
-3.7914e-09
3.59443e-08
-3.67909e-09
3.79039e-08
-3.37343e-09
3.9536e-08
-2.94083e-09
4.0842e-08
-2.48767e-09
4.18675e-08
-2.06267e-09
4.26368e-08
-1.64519e-09
4.30526e-08
-1.08737e-09
4.29269e-08
-2.90835e-10
4.24393e-08
3.30486e-10
4.16424e-08
8.38131e-10
4.06308e-08
1.17749e-09
3.94829e-08
1.38793e-09
3.81764e-08
1.62427e-09
3.66422e-08
1.96342e-09
3.47652e-08
2.42973e-09
3.25952e-08
2.8013e-09
3.03015e-08
2.93534e-09
2.80037e-08
2.9249e-09
2.56859e-08
2.94461e-09
2.32315e-08
3.1293e-09
2.04886e-08
3.53062e-09
1.72959e-08
4.13826e-09
1.35165e-08
4.92833e-09
9.26985e-09
5.58323e-09
4.83399e-09
5.89239e-09
3.50468e-10
5.99558e-09
-4.07636e-09
5.92164e-09
-8.27238e-09
5.57672e-09
-1.19975e-08
4.88596e-09
-1.50556e-08
3.92668e-09
-1.73948e-08
2.91966e-09
-1.91752e-08
2.18636e-09
-2.07143e-08
1.97428e-09
-2.22473e-08
2.19838e-09
-2.41096e-08
2.86982e-09
-2.62696e-08
3.37608e-09
-2.78466e-08
2.60708e-09
-2.84369e-08
1.15673e-09
-2.85115e-08
1.06546e-10
-2.81695e-08
-5.80237e-10
-2.78818e-08
-6.13046e-10
-2.81957e-08
4.7669e-11
-2.93576e-08
1.00021e-09
-3.11233e-08
1.6677e-09
-3.22288e-08
9.68028e-10
-3.244e-08
2.37227e-10
-3.2605e-08
3.8328e-10
-3.36107e-08
1.5523e-09
-3.56569e-08
2.55959e-09
-3.79424e-08
3.15807e-09
-3.98625e-08
3.02166e-09
-4.09768e-08
2.14981e-09
-4.00638e-08
2.11961e-10
-3.75692e-08
-1.29892e-09
-3.38174e-08
-2.43748e-09
-2.92831e-08
-3.25776e-09
-2.40018e-08
-4.25975e-09
-1.79545e-08
-5.65698e-09
-1.10916e-08
-7.63401e-09
-3.47349e-09
-9.38527e-09
5.00252e-09
-1.12774e-08
1.46133e-08
-1.34289e-08
2.57153e-08
-1.58245e-08
3.83768e-08
-1.78024e-08
5.23612e-08
-1.92666e-08
6.70445e-08
-1.99178e-08
8.17825e-08
-1.95504e-08
9.58876e-08
-1.82232e-08
1.08165e-07
-1.56577e-08
1.17352e-07
-1.12915e-08
1.22323e-07
-5.45277e-09
1.22224e-07
1.49613e-09
1.22051e-07
8.79905e-10
1.28868e-07
-9.45859e-09
1.44588e-07
-2.39096e-08
1.66761e-07
-3.45329e-08
1.89779e-07
-3.59198e-08
2.085e-07
-2.91725e-08
2.21424e-07
-1.80219e-08
2.31059e-07
-1.23995e-08
2.39323e-07
-1.04083e-08
2.46302e-07
-8.61213e-09
2.54867e-07
-1.07435e-08
2.67345e-07
-1.59946e-08
2.83288e-07
-2.08789e-08
3.00548e-07
-2.29183e-08
3.16772e-07
-2.15078e-08
3.29794e-07
-1.6892e-08
3.38432e-07
-1.06052e-08
3.42609e-07
-4.59302e-09
3.43493e-07
-1.49438e-09
3.50195e-07
-1.05338e-08
3.69142e-07
-2.77049e-08
3.96023e-07
-3.8857e-08
4.2208e-07
-3.76209e-08
4.40326e-07
-2.66012e-08
4.50751e-07
-1.53757e-08
4.57103e-07
-9.10439e-09
4.62347e-07
-6.91064e-09
4.6708e-07
-5.64764e-09
4.70249e-07
-2.94447e-09
4.69936e-07
2.41477e-09
4.64441e-07
1.01624e-08
4.52794e-07
1.921e-08
4.36017e-07
2.69452e-08
3.07635e-08
0
0
0
0
0
0
0
0
0
0
0
0
0
0
0
0
0
0
0
0
0
0
0
0
0
0
0
0
0
0
0
0
0
0
0
0
0
0
0
0
0
0
0
0
0
0
0
0
0
0
0
0
-0
0
-7.13984e-318
-7.05872e-320
-7.74616e-298
-8.68659e-300
-3.537e-277
-4.50348e-279
-7.72769e-259
-1.11814e-260
-9.29495e-234
-1.52959e-235
-1.76513e-215
-3.30597e-217
-3.17326e-198
-6.76855e-200
-7.14394e-183
-1.73629e-184
-3.05494e-168
-8.46353e-170
-4.30022e-154
-1.35844e-155
-1.83889e-140
-6.62511e-142
-2.76673e-127
-1.13691e-128
-1.82413e-114
-8.54914e-116
-4.54441e-102
-2.42862e-103
-3.46962e-90
-2.1135e-91
-4.41507e-79
-3.06355e-80
-4.484e-69
-3.54124e-70
-1.51101e-58
-1.35683e-59
-1.05234e-48
-1.07336e-49
-1.04789e-41
-1.21316e-42
-5.3442e-36
-7.02338e-37
-1.71624e-31
-2.56501e-32
-1.87835e-28
-3.21291e-29
-1.58824e-26
-3.14627e-27
-5.54673e-26
-1.30698e-26
-7.93648e-26
-2.33037e-26
-9.94632e-26
-3.83087e-26
-1.74036e-25
-2.22013e-26
4.76385e-09
6.77457e-10
1.19348e-08
6.38948e-11
1.06464e-07
5.73116e-09
2.85251e-07
-1.645e-09
3.28533e-07
-2.46042e-09
3.84473e-07
2.10286e-11
5.52934e-07
1.0749e-08
6.76075e-07
7.87125e-08
6.52002e-07
6.53259e-08
6.34818e-07
3.75061e-08
6.23837e-07
1.88414e-08
6.11702e-07
1.72481e-08
5.9708e-07
2.35834e-08
5.7844e-07
3.55084e-08
5.59543e-07
4.41041e-08
5.33494e-07
5.58151e-08
5.09854e-07
5.19971e-08
4.55664e-07
2.93517e-08
4.39203e-07
1.30439e-08
4.65446e-07
6.25782e-09
4.85329e-07
7.74262e-10
4.40399e-07
-7.19056e-09
4.14153e-07
-9.54892e-09
4.12331e-07
-3.86864e-09
4.63891e-07
4.94954e-09
4.85075e-07
1.50997e-08
4.66942e-07
2.78408e-08
4.37525e-07
3.51423e-08
3.80692e-07
5.17416e-08
3.26144e-07
4.98682e-08
3.21824e-07
2.19261e-08
3.40348e-07
-5.94866e-09
3.50182e-07
-3.16478e-09
3.39844e-07
6.9876e-09
3.18415e-07
8.58001e-09
2.96592e-07
7.27806e-09
2.69118e-07
8.81527e-09
2.31687e-07
1.17318e-08
2.00713e-07
1.13485e-08
1.7789e-07
1.05403e-08
1.52713e-07
1.0312e-08
1.26385e-07
9.07521e-09
1.04497e-07
7.36648e-09
8.99943e-08
6.14362e-09
8.29608e-08
5.13901e-09
8.52989e-08
5.02363e-09
8.73881e-08
5.23687e-09
8.90526e-08
4.12613e-09
9.23033e-08
2.89459e-09
9.74628e-08
1.98882e-09
1.05337e-07
7.56702e-10
1.08321e-07
3.655e-09
1.00535e-07
1.36172e-08
9.32204e-08
7.50775e-09
9.31426e-08
1.07133e-09
9.63025e-08
-2.9822e-09
9.83146e-08
-2.65774e-09
9.87717e-08
-2.66625e-09
9.94301e-08
-3.72306e-09
9.97133e-08
-2.96932e-09
9.86122e-08
-5.39985e-10
9.65364e-08
1.49986e-09
9.32018e-08
3.54649e-09
8.87892e-08
5.69052e-09
8.33481e-08
7.60008e-09
7.76477e-08
8.29758e-09
7.2739e-08
7.47852e-09
6.88159e-08
6.25015e-09
6.50858e-08
5.80557e-09
6.11054e-08
5.92256e-09
5.68324e-08
6.20608e-09
5.23111e-08
6.50047e-09
4.78059e-08
6.54622e-09
4.36356e-08
6.25231e-09
3.99697e-08
5.71571e-09
3.68938e-08
5.0177e-09
3.45226e-08
4.13524e-09
3.29393e-08
3.09904e-09
3.20838e-08
2.05714e-09
3.17757e-08
1.0524e-09
3.19942e-08
-1.45399e-10
3.33706e-08
-1.77465e-09
3.61206e-08
-3.56688e-09
4.00244e-08
-5.04391e-09
4.42541e-08
-5.70872e-09
4.82435e-08
-5.86852e-09
5.21438e-08
-6.16081e-09
5.60915e-08
-6.51388e-09
6.00174e-08
-6.67668e-09
6.35591e-08
-6.32214e-09
6.63474e-08
-5.43158e-09
6.80534e-08
-4.1618e-09
6.88788e-08
-3.016e-09
6.95217e-08
-2.48321e-09
7.02422e-08
-2.18529e-09
7.10088e-08
-1.71826e-09
7.12125e-08
-4.58757e-10
6.99567e-08
1.58631e-09
6.78245e-08
2.97027e-09
6.55395e-08
3.46249e-09
6.361e-08
3.31744e-09
6.20168e-08
3.21746e-09
6.00996e-08
3.88063e-09
5.7054e-08
5.4753e-09
5.30402e-08
6.81512e-09
4.88383e-08
7.13722e-09
4.49754e-08
6.78778e-09
4.17445e-08
6.17555e-09
3.87617e-08
6.11212e-09
3.50582e-08
5.7321e-09
3.00678e-08
7.11274e-09
2.3337e-08
8.96664e-09
1.56449e-08
1.00294e-08
8.16346e-09
9.89681e-09
9.21388e-10
9.58832e-09
-6.17351e-09
9.20001e-09
-1.3032e-08
8.57421e-09
-1.90278e-08
7.3165e-09
-2.36439e-08
5.61133e-09
-2.66405e-08
3.83906e-09
-2.8343e-08
2.55456e-09
-3.01168e-08
2.39756e-09
-3.10287e-08
1.91229e-09
-2.90871e-08
6.19855e-10
-2.46769e-08
-3.39015e-10
-1.87718e-08
-1.07201e-09
-1.38086e-08
-1.08021e-09
-1.02935e-08
-8.9615e-10
-6.55123e-09
-1.18631e-09
-2.84384e-09
-1.29227e-09
4.53778e-10
-1.11619e-09
2.75915e-09
-6.34693e-10
3.1617e-09
1.28195e-10
-6.99525e-10
1.00501e-09
-1.16202e-08
2.84821e-09
-2.4594e-08
3.43961e-09
-3.41419e-08
2.54188e-09
-4.00276e-08
1.85107e-09
-4.08246e-08
1.11418e-09
-3.7402e-08
1.31004e-10
-3.52047e-08
-3.20723e-10
-3.56218e-08
4.6958e-11
-3.56058e-08
-1.64632e-11
-3.31295e-08
-2.37002e-11
-3.06273e-08
-9.19981e-12
-2.8937e-08
-1.4769e-11
-3.07456e-08
-2.22305e-11
-3.49558e-08
-2.89395e-11
-2.8816e-08
-2.92386e-11
-2.1443e-08
-3.67992e-14
-1.32792e-08
-2.74129e-13
-5.54701e-09
-3.46525e-13
1.66952e-09
-4.11525e-13
1.0431e-08
-2.3319e-12
2.16245e-08
-4.544e-13
3.63733e-08
-2.83879e-11
5.71825e-08
-4.76533e-11
9.00428e-08
-6.10072e-11
1.3205e-07
-1.47103e-11
1.79672e-07
-1.61654e-11
2.1612e-07
-1.75273e-10
2.42568e-07
-5.61759e-09
2.48635e-07
-1.12341e-08
2.61293e-07
-3.65666e-08
2.59678e-07
-5.16566e-08
2.02518e-07
-1.59274e-08
1.27817e-07
-3.83148e-09
1.49479e-07
-8.05031e-11
2.06885e-07
-4.35308e-13
2.76705e-07
-2.5577e-11
3.29166e-07
-5.96575e-11
3.76438e-07
-2.65376e-11
4.14079e-07
-1.39e-08
4.42498e-07
-3.88593e-08
4.6804e-07
-4.84606e-08
4.93736e-07
-4.72043e-08
5.16711e-07
-3.91173e-08
5.33148e-07
-2.66242e-08
5.38614e-07
-1.00582e-08
5.32719e-07
4.39968e-09
5.33123e-07
-1.09377e-08
5.56981e-07
-5.15621e-08
6.01014e-07
-8.19466e-08
6.45333e-07
-7.60809e-08
6.67936e-07
-4.74214e-08
6.75427e-07
-2.28664e-08
6.79959e-07
-1.3636e-08
6.8749e-07
-1.44421e-08
6.97903e-07
-1.60599e-08
7.08367e-07
-1.34089e-08
7.14711e-07
-3.929e-09
7.13262e-07
1.16114e-08
7.00537e-07
3.19315e-08
6.76876e-07
5.06062e-08
5.86391e-08
0
0
0
0
0
0
0
0
0
0
0
0
0
0
0
0
0
0
0
0
0
0
0
0
0
0
0
0
0
0
0
0
0
0
0
0
0
0
0
0
0
0
0
0
0
0
0
0
0
0
0
0
-0
0
-8.84175e-319
-9.9653e-321
-9.75039e-299
-1.24265e-300
-4.52127e-278
-6.51681e-280
-1.00209e-259
-1.63397e-261
-1.2213e-234
-2.25315e-236
-2.34706e-216
-4.89927e-218
-4.26434e-199
-1.00704e-200
-9.68953e-184
-2.58802e-185
-4.17654e-169
-1.26111e-170
-5.91868e-155
-2.01913e-156
-2.54561e-141
-9.80334e-143
-3.84951e-128
-1.67178e-129
-2.55014e-115
-1.24738e-116
-6.38449e-103
-3.51253e-104
-4.90215e-91
-3.02898e-92
-6.28252e-80
-4.35327e-81
-6.44021e-70
-4.99762e-71
-2.19704e-59
-1.9073e-60
-1.55512e-49
-1.50942e-50
-1.58179e-42
-1.71679e-43
-8.29327e-37
-1.00767e-37
-2.76094e-32
-3.76423e-33
-3.17225e-29
-4.87189e-30
-2.89176e-27
-5.02891e-28
-1.3511e-26
-2.67619e-27
-2.99861e-26
-6.83097e-27
-5.34299e-26
-1.40031e-26
-6.73396e-26
-7.43159e-27
6.24597e-10
5.28954e-11
6.38271e-10
5.07564e-11
5.74602e-09
6.30302e-10
4.03803e-09
6.02713e-11
1.8628e-09
-2.89441e-10
1.97315e-09
-9.04428e-11
2.29496e-08
7.96984e-10
1.21631e-07
-2.77091e-10
2.15395e-07
-1.88043e-10
2.08153e-07
5.00078e-10
1.98571e-07
-6.10479e-10
2.88307e-07
-3.9853e-10
2.43406e-07
2.70284e-09
1.05103e-07
-4.44915e-11
6.19378e-08
-3.7851e-13
1.6286e-07
4.90085e-10
5.75861e-07
6.99365e-09
6.36058e-07
2.08691e-08
6.46399e-07
3.45086e-09
6.3474e-07
1.86638e-08
6.16452e-07
9.87974e-09
5.88036e-07
-3.67907e-09
5.89557e-07
-7.96964e-09
5.83859e-07
2.37823e-09
5.69067e-07
2.02969e-08
1.82538e-07
6.03986e-09
5.02651e-08
-1.54823e-10
1.52381e-07
-2.79472e-11
3.32625e-07
2.29677e-08
5.2094e-07
6.76829e-08
3.01712e-07
3.73002e-08
8.10229e-08
-3.29386e-08
1.93344e-07
-2.22779e-08
3.49182e-07
-7.40048e-10
2.70974e-07
1.5605e-08
1.26902e-07
1.02131e-08
5.17303e-08
-2.51526e-09
5.50479e-08
6.83619e-10
5.46611e-08
-3.28552e-10
4.17545e-08
-1.15038e-09
2.20694e-08
2.85976e-09
1.27994e-08
2.76095e-09
7.28445e-09
2.94047e-09
4.27503e-09
-4.79734e-10
3.2381e-09
-4.61932e-10
2.90502e-09
1.55539e-10
2.05153e-09
1.16996e-09
2.39458e-09
-3.33618e-11
4.49111e-09
-7.52022e-10
7.31598e-09
-9.432e-10
1.02834e-08
-1.16739e-09
1.76607e-08
-7.23393e-10
6.23178e-08
-3.85767e-10
1.47846e-07
2.56154e-09
1.18031e-07
6.83622e-09
6.27153e-08
1.42163e-09
6.13631e-08
-1.04246e-09
7.91396e-08
-6.5965e-10
7.71314e-08
1.15004e-10
6.50197e-08
1.99573e-10
5.42371e-08
1.48441e-10
4.91571e-08
4.06999e-11
4.37895e-08
-6.30001e-11
3.81118e-08
-2.0225e-10
3.37373e-08
-3.2347e-10
3.06798e-08
-3.7351e-10
2.76091e-08
-4.2881e-10
2.49692e-08
-4.20241e-10
2.2216e-08
-4.93837e-10
1.88702e-08
-6.41655e-10
1.50833e-08
-5.975e-10
1.07644e-08
-8.23909e-10
5.95556e-09
-9.47621e-10
8.85482e-10
-5.10502e-10
-3.92377e-09
-7.52142e-10
-8.14518e-09
-5.94047e-10
-1.15905e-08
-4.07402e-10
-1.37664e-08
-2.35085e-10
-1.45602e-08
-9.74327e-11
-1.31403e-08
-4.50607e-10
-9.75351e-09
-3.53616e-10
-5.10225e-09
-2.4537e-10
1.722e-11
-1.66552e-10
4.91852e-09
-9.91488e-11
9.8269e-09
-1.62097e-10
1.6811e-08
-4.11334e-10
2.62835e-08
-1.32751e-09
3.6077e-08
-1.88772e-09
4.45973e-08
-1.80975e-09
5.13179e-08
-2.35046e-09
5.63799e-08
-2.51393e-09
6.02701e-08
-1.84516e-09
6.3971e-08
-1.56523e-09
6.73264e-08
-1.41784e-09
6.77681e-08
-4.51921e-10
6.45077e-08
2.47935e-10
5.91247e-08
5.47361e-10
5.51699e-08
4.98266e-10
5.46977e-08
2.00545e-10
5.7224e-08
-2.65728e-10
6.10982e-08
-6.93424e-10
6.43207e-08
-3.46669e-10
6.50755e-08
2.50357e-10
6.23757e-08
7.98916e-10
5.90482e-08
9.61553e-10
5.71548e-08
6.95477e-10
5.4614e-08
6.33621e-10
5.0186e-08
6.53139e-10
4.44554e-08
6.03417e-10
3.77401e-08
5.25241e-10
3.1622e-08
2.92656e-10
2.60388e-08
3.98502e-10
2.19072e-08
4.11559e-10
1.85602e-08
7.98425e-11
1.51274e-08
4.36368e-10
1.18058e-08
8.87941e-10
9.35133e-09
2.74778e-11
7.80141e-09
-2.86041e-10
6.61441e-09
-3.68557e-10
5.32887e-09
-1.83863e-11
3.90895e-09
-1.45088e-11
1.77538e-09
-6.77149e-10
-3.64404e-10
-9.4042e-10
-6.58744e-10
-2.3356e-10
4.13854e-11
-3.66143e-10
1.67478e-10
-2.59201e-10
1.92865e-11
-1.35381e-12
2.18677e-12
-1.28658e-12
4.49086e-12
-1.4224e-13
2.44566e-11
-8.3187e-12
7.59693e-11
-1.9654e-11
1.79262e-10
-3.84537e-11
3.85713e-10
-5.00268e-13
7.23515e-10
-2.11276e-10
8.81363e-10
-2.62428e-12
7.60988e-10
-8.24397e-11
6.65339e-10
-9.603e-12
5.5818e-10
-2.08949e-10
2.40925e-10
-8.56453e-11
5.16984e-11
-5.80635e-13
2.36001e-11
6.02108e-12
1.71606e-11
2.59489e-12
5.24846e-12
-4.12541e-12
6.48075e-14
-1.78769e-11
3.91286e-14
-9.2664e-12
3.26093e-14
-1.46237e-11
2.31128e-14
-2.22906e-11
1.25106e-14
-2.88583e-11
-7.1832e-16
-2.90893e-11
-1.27496e-14
8.50086e-15
-2.33086e-14
8.89756e-16
-3.42301e-14
-3.7481e-14
-4.7328e-14
-3.15297e-13
-6.04082e-14
-2.31874e-12
-1.64498e-13
-3.50283e-13
-2.72047e-13
-2.82765e-11
-3.73706e-13
-4.70936e-11
-2.97937e-13
-5.94985e-11
-2.37945e-13
-1.16558e-11
-2.04453e-13
-1.05305e-11
1.02763e-11
-1.80354e-10
5.0896e-08
-1.37966e-09
3.14852e-07
-1.32178e-10
3.44857e-07
-6.13529e-11
1.33486e-07
-4.35202e-14
3.94222e-09
4.63941e-12
8.29251e-11
2.69398e-11
3.26473e-13
3.04381e-15
1.61777e-13
-2.40247e-12
2.41017e-13
-2.77603e-11
5.09327e-13
-6.19949e-11
2.33954e-11
-5.15152e-11
1.59929e-07
-2.74757e-10
4.55007e-07
-2.82461e-10
4.42833e-07
-1.72886e-10
3.82345e-07
-1.92894e-10
4.1497e-07
-2.96673e-10
5.40765e-07
-4.20978e-10
7.49355e-07
-1.03072e-11
7.81602e-07
1.81955e-08
7.44807e-07
1.65137e-08
6.62482e-07
-6.30672e-08
3.89667e-07
-9.20674e-08
4.82084e-07
-2.88637e-08
6.60047e-07
-1.04239e-09
7.91998e-07
-2.9351e-10
8.29494e-07
-3.60132e-14
8.40015e-07
-1.54009e-08
8.55727e-07
-3.17723e-08
8.70895e-07
-3.32778e-08
8.83885e-07
-1.8025e-08
8.99608e-07
9.86966e-11
8.86791e-07
4.47486e-08
8.45223e-07
9.21742e-08
1.03269e-07
0
0
0
0
0
0
0
0
0
0
0
0
0
0
0
0
0
0
0
0
0
0
0
0
0
0
0
0
0
0
0
0
0
0
0
0
0
0
0
0
0
0
0
0
0
0
0
0
0
0
0
0
0
0
-1.16758e-319
-1.38832e-321
-1.30226e-299
-1.74357e-301
-6.10156e-279
-9.20167e-281
-1.36493e-260
-2.31832e-262
-1.67701e-235
-3.20736e-237
-3.24484e-217
-6.98598e-219
-5.92807e-200
-1.43611e-201
-1.35264e-184
-3.68525e-186
-5.84721e-170
-1.79041e-171
-8.29966e-156
-2.85386e-157
-3.57142e-142
-1.37772e-143
-5.39808e-129
-2.33354e-130
-3.57149e-116
-1.7279e-117
-8.92601e-104
-4.82592e-105
-6.84139e-92
-4.12679e-93
-8.75731e-81
-5.8832e-82
-8.97798e-71
-6.70467e-72
-3.06989e-60
-2.54349e-61
-2.18546e-50
-2.00498e-51
-2.24672e-43
-2.27807e-44
-1.19853e-37
-1.34086e-38
-4.09477e-33
-5.0471e-34
-4.88073e-30
-6.61975e-31
-4.71775e-28
-7.03499e-29
-2.76606e-27
-4.52899e-28
-8.20165e-27
-1.47334e-27
-1.80834e-26
-3.54805e-27
-2.23059e-26
-1.95179e-27
4.97177e-11
3.13576e-12
9.6228e-11
4.20259e-12
6.86615e-10
4.08955e-11
7.3506e-10
1.20006e-11
4.52496e-10
-7.14745e-12
3.64051e-10
-2.19797e-12
1.09827e-09
6.37326e-11
8.02783e-10
1.67739e-11
6.1233e-10
1.87572e-12
1.00203e-09
1.08572e-10
4.54976e-10
-6.52908e-11
1.026e-10
-4.78133e-11
3.44648e-11
-4.45169e-11
-2.6249e-15
-1.13962e-11
1.53956e-13
-1.92073e-12
4.97101e-10
-9.15034e-12
2.10947e-08
-7.31399e-12
4.49583e-08
-2.9795e-13
4.59864e-08
1.84436e-10
7.07599e-08
6.16482e-11
2.83905e-07
1.48798e-11
3.10614e-07
6.1683e-10
1.20994e-07
-4.27656e-10
1.21335e-08
-1.02354e-10
3.60536e-09
-9.80584e-12
1.80728e-10
3.39771e-12
2.92084e-11
-1.88125e-12
2.57803e-12
-6.79588e-13
2.28693e-08
1.00831e-10
7.32355e-07
2.79113e-09
8.86944e-07
4.02597e-08
3.81927e-07
-2.31063e-08
4.79399e-08
-1.10442e-09
3.03443e-08
-1.73831e-10
2.98573e-08
-8.42041e-10
3.50583e-08
-1.20529e-08
1.29211e-07
-1.03719e-08
1.3497e-07
-1.32276e-08
1.1518e-08
-4.63313e-10
5.82194e-09
-2.47018e-10
6.41099e-09
-2.44879e-09
6.39951e-09
-1.93727e-09
6.10822e-09
-1.48773e-09
7.13892e-09
7.52428e-10
1.54414e-09
1.66534e-09
-1.0341e-10
1.28083e-11
-4.76003e-10
-2.72951e-10
-1.86911e-10
-1.35791e-09
1.48324e-09
-3.25219e-09
6.8094e-09
-2.79216e-09
7.36174e-09
-7.0224e-10
6.06221e-09
-1.41215e-10
6.45341e-09
-6.77369e-11
1.6837e-08
3.0427e-09
1.60538e-08
-3.83677e-09
1.14111e-08
8.05987e-11
1.23707e-08
-3.02638e-09
1.05488e-08
-5.36572e-10
4.70447e-09
-9.39604e-11
2.70821e-09
1.2535e-10
1.68153e-09
1.41452e-10
8.15891e-10
-9.84752e-11
3.88548e-10
-9.5842e-13
2.18934e-10
-9.82093e-12
1.19294e-10
-2.05792e-11
7.31606e-11
-4.85122e-12
4.81032e-11
1.15353e-11
1.08545e-10
-5.58328e-12
6.80357e-11
-4.52062e-12
4.15608e-11
-3.91187e-13
5.49645e-11
-1.02037e-12
4.31677e-11
-1.82108e-12
1.45955e-11
-5.53215e-12
-5.8126e-12
-3.53499e-12
-5.15936e-11
-3.43166e-12
-1.15388e-10
-6.60746e-12
-1.67658e-10
-2.28527e-11
-1.91311e-10
-2.03199e-11
-9.38595e-11
-7.48504e-12
-7.04492e-11
-1.47684e-12
-6.79553e-11
-5.15208e-12
-5.97131e-11
-2.26873e-11
-4.69807e-11
-3.5498e-11
-3.68691e-11
-2.49623e-11
-3.6046e-11
-1.91339e-11
-3.41468e-11
-1.82113e-10
-2.15668e-11
-9.74543e-10
-7.02423e-13
-1.37937e-09
1.74354e-11
-1.11705e-09
3.05753e-11
-6.43157e-10
4.55153e-11
-2.14094e-10
1.26502e-10
-2.24142e-11
1.94138e-10
-1.06961e-10
3.49554e-10
-7.87733e-10
5.93148e-10
-4.93796e-10
6.77315e-10
-4.94723e-12
5.39827e-10
-8.1978e-12
2.73939e-10
-1.49226e-10
1.33437e-10
-2.96638e-12
2.35222e-10
-2.02618e-10
5.42888e-10
-5.9693e-10
9.53544e-10
-7.30964e-10
1.29191e-09
-2.42033e-10
1.42846e-09
1.84721e-10
1.40039e-09
-2.96571e-11
1.5675e-09
-1.92905e-12
1.86003e-09
-1.33905e-10
1.96567e-09
-3.96264e-11
1.65145e-09
1.59601e-11
7.98326e-10
4.10428e-10
1.64468e-10
-1.44246e-12
2.02458e-11
-1.17187e-10
2.27488e-11
-3.90597e-11
3.3559e-11
-2.9741e-10
2.90284e-11
-1.47194e-11
1.46676e-11
7.95948e-13
5.55281e-12
3.8836e-13
5.11187e-12
-4.92094e-13
1.43117e-11
-5.7283e-12
2.35211e-11
-1.20129e-11
3.95155e-11
-2.04253e-11
1.90051e-10
-5.09191e-11
1.68006e-09
-2.21045e-10
3.17913e-09
-5.103e-10
2.92571e-09
-2.91587e-10
8.03585e-10
-2.52932e-11
5.18278e-11
-7.36576e-11
4.34979e-11
-1.8885e-11
2.564e-11
-8.1998e-12
3.14738e-11
-2.52278e-12
5.40434e-11
-3.72339e-14
1.36149e-11
9.15831e-13
1.09006e-11
1.51149e-12
5.30482e-09
7.78919e-10
1.42527e-09
7.2079e-10
1.17591e-10
9.73556e-11
-5.89081e-10
-2.54798e-11
-1.55986e-09
9.09605e-10
-3.28211e-09
4.38746e-10
-1.22717e-10
4.15638e-10
-2.11997e-10
2.80321e-11
-3.00061e-10
4.15434e-11
-1.28698e-09
9.99313e-11
-1.35515e-08
7.38023e-10
-1.40576e-08
5.46213e-10
-1.42324e-08
2.04315e-10
-1.44395e-08
2.34195e-10
-1.479e-08
4.50135e-10
-7.41476e-12
5.59012e-10
-7.33882e-12
1.97014e-13
-2.17914e-11
3.90296e-13
-2.58885e-11
1.61761e-12
-1.70012e-11
-9.20256e-12
-4.34088e-09
-3.26295e-11
-4.31698e-09
-1.91005e-10
-3.88214e-09
-3.71505e-10
-3.69962e-09
-1.37107e-10
-2.29962e-09
-2.80104e-10
-8.44155e-11
-3.13327e-10
-1.25139e-09
-2.0896e-10
-2.11797e-09
-3.13019e-10
-5.65776e-12
-6.50758e-10
-9.46864e-13
-1.50173e-10
6.51373e-15
-7.25614e-11
5.65195e-14
-1.03486e-11
-5.57691e-13
-5.00145e-12
-6.29194e-13
1.35829e-12
-9.25175e-12
8.56999e-13
-1.68446e-10
-2.4576e-13
-6.11289e-11
-4.25258e-12
1.04659e-11
-1.11628e-11
6.70274e-11
-1.97772e-12
2.31761e-12
-8.11322e-14
3.09509e-12
-7.29937e-13
3.39639e-12
-1.01159e-10
4.10666e-12
-2.25321e-10
4.28449e-12
-3.70187e-10
5.04121e-12
-4.98757e-10
3.23561e-12
-8.55241e-11
1.8197e-08
-6.68739e-11
4.51695e-07
-1.12318e-09
5.91752e-07
-2.5694e-10
1.80742e-07
-4.1247e-11
1.26565e-09
3.08742e-11
3.01955e-10
-7.71742e-11
5.04064e-12
1.40903e-13
2.30873e-12
-5.75649e-13
6.73129e-07
-8.12467e-12
7.51967e-07
-1.73505e-11
4.68097e-07
-1.39851e-11
1.05757e-07
-3.6756e-11
2.26084e-07
-2.42483e-11
6.03585e-07
2.87175e-09
9.87553e-07
7.72961e-08
1.53563e-07
0
0
0
0
0
0
0
0
0
0
0
0
0
0
0
0
0
0
0
0
0
0
0
0
0
0
0
0
0
0
0
0
0
0
0
0
0
0
0
0
0
0
0
0
0
0
0
0
0
0
0
0
0
0
-1.53111e-320
-1.82804e-322
-1.72036e-300
-2.28041e-302
-8.11311e-280
-1.20709e-281
-1.82468e-261
-3.04588e-263
-2.25127e-236
-4.21403e-238
-4.36893e-218
-9.16477e-220
-7.99567e-201
-1.87829e-202
-1.82544e-185
-4.79813e-187
-7.88637e-171
-2.31722e-172
-1.11756e-156
-3.66675e-158
-4.7967e-143
-1.75532e-144
-7.22643e-130
-2.94555e-131
-4.76331e-117
-2.15951e-118
-1.1858e-104
-5.97003e-106
-9.05457e-93
-5.05366e-94
-1.15542e-81
-7.13588e-83
-1.18212e-71
-8.06242e-73
-4.04029e-61
-3.03641e-62
-2.88138e-51
-2.38041e-52
-2.9762e-44
-2.69567e-45
-1.60122e-38
-1.58535e-39
-5.54279e-34
-5.97911e-35
-6.73156e-31
-7.88154e-32
-6.73702e-29
-8.52486e-30
-4.7201e-28
-6.42197e-29
-1.72654e-27
-2.51033e-28
-4.38547e-27
-6.7622e-28
-5.14798e-27
-3.53359e-28
2.99547e-12
1.40333e-13
6.95731e-12
2.41692e-13
4.55994e-11
2.29182e-12
5.6206e-11
1.40342e-12