/*--------------------------------*- C++ -*----------------------------------*\
| =========                 |                                                 |
| \\      /  F ield         | OpenFOAM: The Open Source CFD Toolbox           |
|  \\    /   O peration     | Version:  2406                                  |
|   \\  /    A nd           | Website:  www.openfoam.com                      |
|    \\/     M anipulation  |                                                 |
\*---------------------------------------------------------------------------*/
FoamFile
{
    version     2.0;
    format      ascii;
    arch        "LSB;label=32;scalar=64";
    class       volScalarField;
    location    "0.2";
    object      alpha.glycerin;
}
// * * * * * * * * * * * * * * * * * * * * * * * * * * * * * * * * * * * * * //

dimensions      [0 0 0 0 0 0 0];

internalField   nonuniform List<scalar> 
6250
(
4.43473e-320
4.43473e-320
4.43671e-320
4.43671e-320
4.43869e-320
4.43869e-320
4.44066e-320
4.44165e-320
4.44264e-320
4.44461e-320
4.44659e-320
4.44857e-320
4.45054e-320
4.45252e-320
4.4545e-320
4.45746e-320
4.46042e-320
4.4624e-320
4.46635e-320
4.47031e-320
4.47426e-320
4.47821e-320
4.48216e-320
4.48809e-320
-4.49402e-320
-9.00188e-320
-9.01769e-320
-3.01938e-311
-3.12803e-291
-1.36373e-270
-2.84577e-252
-3.2717e-227
-5.94503e-209
-1.02411e-191
-2.21302e-176
-9.10143e-162
-1.23512e-147
-5.10687e-134
-7.45337e-121
-4.78422e-108
-1.16522e-95
-8.73983e-84
-1.09863e-72
-1.10895e-62
-3.74323e-52
-2.63811e-42
-2.69393e-35
-1.43499e-29
-4.93217e-25
-6.04941e-22
-5.93297e-20
-3.22848e-19
-2.31814e-19
-3.16139e-19
-1.56668e-19
0.535176
0.99981
0.999945
0.999945
0.999945
0.999945
0.999945
0.999945
0.999945
0.99994
0.999932
0.999938
0.999947
0.999942
0.999942
0.999941
0.999939
0.999939
0.999939
0.999939
0.99994
0.999941
0.999941
0.999939
0.999939
0.999939
0.999965
0.999929
0.999925
0.999925
0.999937
0.999986
0.999991
0.999982
0.999982
0.999982
0.999982
0.999982
0.999982
0.999982
0.999982
0.999985
0.999981
0.999974
0.999974
0.999983
0.999996
0.999995
0.999993
0.999993
0.999995
0.999999
0.99999
0.999924
0.999922
0.999937
0.999995
0.999999
0.999999
0.999999
0.999999
0.999999
0.999999
0.999999
0.999996
0.999956
0.999929
0.999932
0.999965
0.999938
0.999937
0.999943
0.999983
0.999993
0.999994
0.999998
0.999999
0.999999
0.999991
0.999959
0.999959
0.999959
0.999962
0.999961
0.999959
0.999959
0.999959
0.999982
1
1
1
1
0.999986
0.999984
0.999991
0.99998
0.999976
0.999976
0.999976
0.999976
0.999977
0.999977
0.999977
0.999981
1
1
1
1
1
1
0.999993
0.999982
0.999982
0.999982
0.999983
0.999983
0.999982
0.999982
0.999983
0.999998
1
1
1
1
1
1
1
1
1
1
1
1
1
1
1
1
1
1
1
1
1
1
1
1
1
1
0.999984
0.999965
0.999974
0.999974
0.999974
0.999974
0.999974
0.999974
0.999974
0.999974
0.999969
0.999972
0.999985
1
1
1
1
1
0.999994
0.999984
0.999981
0.999982
0.99999
1
1
1
1
1
1
1.00001
1.00001
1.00001
1.00001
1.00001
1.00001
1.00001
1.00001
1.00001
1.00001
1.00001
1.00001
1.00001
1
1
1
1
1
1
1
4.43276e-320
4.43078e-320
4.43078e-320
4.42979e-320
4.4288e-320
4.4288e-320
4.4288e-320
4.42683e-320
4.42683e-320
4.42683e-320
4.42485e-320
4.42485e-320
4.42386e-320
4.42288e-320
4.42288e-320
4.4209e-320
4.4209e-320
4.41892e-320
4.41892e-320
4.41695e-320
4.41695e-320
4.41497e-320
4.41398e-320
4.41299e-320
-4.41102e-320
-4.40904e-320
-8.81512e-320
-2.55902e-312
-2.71054e-292
-1.20877e-271
-2.58064e-253
-3.03523e-228
-5.6408e-210
-9.933e-193
-2.19253e-177
-9.20195e-163
-1.27283e-148
-5.35651e-135
-7.94337e-122
-5.17036e-109
-1.27395e-96
-9.63954e-85
-1.21855e-73
-1.2331e-63
-4.15675e-53
-2.91154e-43
-2.93676e-36
-1.53237e-30
-5.10443e-26
-5.91885e-23
-5.40914e-21
-1.67494e-20
-1.60036e-20
-1.95744e-20
-2.93281e-20
0.0499641
0.0947962
0.561114
0.998453
0.999945
0.999945
0.999945
0.999945
0.999646
0.999133
0.999133
0.999681
1
0.999999
0.999998
0.999998
0.999999
0.999999
0.999999
1
1
0.999831
0.999557
0.999925
1
1
1
1
1
1
1
1
1
1
1
1
1
1
1
1
1
1
1
1
1
1
1
1
1
1
1
1
1
1
1
1
1
1
1
1
1
1
1
1
1
1
1
1
1
1
1
1
1
1
1
1
1
1
1
1
1
1
1
1
1
1
1
1
1
1
1
1
1
1
1
1
1
1
1
1
1
1
1
1
1
1
1
1
1
1
1
1
1
1
1
1
1
1
1
1
1
1
1
1
1
1
1
1
1
1
1
1
1
1
1
1
1
0.999878
0.997364
0.990931
0.983386
0.979226
0.978175
0.979332
0.983597
0.990441
0.99674
0.999926
0.999974
0.999974
0.999974
0.999974
0.999813
0.99951
0.999413
0.999369
0.999522
0.999918
0.999988
1
1
1
1
1
1
0.999996
0.999468
0.998815
0.999543
1
1
1
1
1
1
1
1
1
1.00001
1.00001
1
1
1
1
1
1.00001
1.00001
1.00001
1.00001
1
1
1
1
1
1
4.43276e-320
4.43276e-320
4.43276e-320
4.43276e-320
4.43276e-320
4.43276e-320
4.43276e-320
4.43276e-320
4.43276e-320
4.43276e-320
4.43276e-320
4.43276e-320
4.43276e-320
4.43276e-320
4.43276e-320
4.43276e-320
4.43276e-320
4.43375e-320
4.43375e-320
4.43473e-320
4.43473e-320
4.43473e-320
4.43473e-320
4.43572e-320
-4.43671e-320
-4.43671e-320
-8.87342e-320
-2.81876e-313
-3.06286e-293
-1.40079e-272
-3.06548e-254
-3.69319e-229
-7.02438e-211
-1.26461e-193
-2.85043e-178
-1.22e-163
-1.71809e-149
-7.34663e-136
-1.10464e-122
-7.27404e-110
-1.80897e-97
-1.37822e-85
-1.75004e-74
-1.77451e-64
-5.97786e-54
-4.17196e-44
-4.17905e-37
-2.15658e-31
-7.068e-27
-7.996e-24
-7.12115e-22
-2.69508e-21
-4.35005e-21
-6.50867e-21
-1.59449e-21
-1.14597e-07
1.25842e-05
0.0204357
0.122746
0.198097
0.225039
0.391285
0.827037
0.999994
1
1
1
1
1
1
1
1
0.916337
0.888181
0.888793
0.992818
0.981501
0.827744
0.820656
0.839684
0.957238
0.972484
0.964589
0.944824
0.904634
0.886726
0.894154
0.912663
0.915254
0.900409
0.871749
0.833898
0.778293
0.718213
0.681041
0.656915
0.629522
0.599488
0.579004
0.58575
0.63931
0.722705
0.789475
0.839006
0.886418
0.939885
0.995577
1
0.983988
0.970765
0.97665
0.988217
0.995572
0.997588
0.998266
0.999227
0.998918
0.996323
0.99222
0.987864
0.983548
0.979266
0.975491
0.972962
0.97163
0.971188
0.971459
0.972251
0.973621
0.975194
0.976764
0.978267
0.979495
0.980522
0.981796
0.983462
0.985057
0.986202
0.987372
0.989156
0.991368
0.993402
0.99507
0.996337
0.99743
0.998765
0.999831
0.999901
0.999938
0.999967
0.999988
0.999999
1
1
1
1
1
1
1
1
1
1
1
1
0.998878
0.996112
0.992288
0.987037
0.980217
0.971948
0.962276
0.950944
0.937239
0.920489
0.900484
0.877157
0.850931
0.823639
0.797377
0.772158
0.745006
0.71478
0.677657
0.641574
0.610429
0.58856
0.572617
0.566676
0.580944
0.606678
0.61609
0.607443
0.575418
0.503166
0.401579
0.324954
0.296583
0.289222
0.287053
0.306307
0.365085
0.464484
0.611407
0.740193
0.744918
0.694187
0.629291
0.572257
0.549255
0.543594
0.537775
0.542159
0.581596
0.649869
0.771656
0.928044
0.994109
0.998864
1
0.97875
0.87068
0.638875
0.480816
0.527989
0.676323
0.817536
0.900996
0.963136
0.996427
1
1
0.999841
0.999955
1
1
1
1
0.998848
0.99843
0.999791
1
1
1
1
1
1
1
0.999999
1
0.999903
4.43276e-320
4.43276e-320
4.43276e-320
4.43276e-320
4.43276e-320
4.43177e-320
4.43177e-320
4.43177e-320
4.43177e-320
4.43177e-320
4.43177e-320
4.43177e-320
4.43177e-320
4.43177e-320
4.43177e-320
4.43177e-320
4.43177e-320
4.43177e-320
4.43177e-320
4.43276e-320
4.43276e-320
4.43276e-320
4.43276e-320
4.43276e-320
-4.43276e-320
-4.43276e-320
-8.86551e-320
-3.48186e-314
-3.84566e-294
-1.78629e-273
-3.9665e-255
-4.84398e-230
-9.32918e-212
-1.69889e-194
-3.86946e-179
-1.67192e-164
-2.37498e-150
-1.02377e-136
-1.55118e-123
-1.02912e-110
-2.57853e-98
-1.97958e-86
-2.53368e-75
-2.59035e-65
-8.80055e-55
-6.19539e-45
-6.26144e-38
-3.26131e-32
-1.07968e-27
-1.23671e-24
-1.12896e-22
-5.31355e-22
-1.19596e-21
-2.17817e-21
-5.02654e-22
-6.6216e-08
1.04997e-06
1.23667e-05
1.85623e-05
1.34378e-05
1.06107e-05
0.00615703
0.0551183
0.135373
0.191449
0.182455
0.283279
0.459547
0.344918
0.0883457
0.081737
0.477723
0.933031
0.940731
0.940728
0.940337
0.913617
0.896002
0.89738
0.897378
0.640249
0.215948
0.128503
0.207463
0.684969
0.764447
0.404673
0.226862
0.365552
0.462728
0.356802
0.178419
0.114911
0.103878
0.0885559
0.0627417
0.0419528
0.0309613
0.0239712
0.0214883
0.0244999
0.027378
0.0284766
0.0323176
0.0408983
0.0510738
0.0522123
0.103531
0.470906
0.739816
0.594235
0.395499
0.428196
0.497914
0.484093
0.434274
0.405032
0.389847
0.373209
0.357524
0.344096
0.331891
0.319657
0.308992
0.300668
0.294393
0.292411
0.293654
0.298357
0.307169
0.318268
0.32924
0.337284
0.342621
0.346317
0.34881
0.351394
0.354516
0.359629
0.36802
0.379522
0.393108
0.407844
0.421588
0.434366
0.44622
0.456812
0.46673
0.476062
0.483487
0.48739
0.488496
0.487828
0.486531
0.486025
0.487116
0.489959
0.494689
0.501368
0.508853
0.511761
0.508823
0.499032
0.481096
0.456326
0.428333
0.399472
0.367647
0.334667
0.302911
0.272269
0.243177
0.215115
0.186604
0.156265
0.12391
0.0918324
0.0633873
0.0414811
0.0251647
0.0106571
0.00198211
0.000409784
0.000252395
0.000385049
0.000602512
0.000809712
0.000979633
0.00132128
0.00192849
0.00215536
0.00180438
0.00128224
0.000637272
0.000115223
1.60817e-05
8.8664e-06
1.77697e-07
1.43519e-07
1.43519e-07
1.42732e-07
1.43519e-07
1.43528e-07
1.43529e-07
1.44731e-07
1.45118e-07
1.46664e-07
1.49172e-07
1.5014e-07
1.50144e-07
1.50714e-07
2.61406e-07
5.01199e-07
8.00346e-07
9.70619e-07
1.06501e-06
0.00934763
0.346944
0.827892
0.62195
0.079144
1.54042e-06
1.06185e-06
1.06631e-06
1.06162e-06
1.15638e-06
1.43003e-06
0.0709053
0.476776
0.722879
0.67989
0.563431
0.589455
0.785353
0.984005
0.997492
0.975932
0.726793
0.496329
0.596613
0.816032
0.962417
0.997227
1
0.997623
0.98786
0.991047
1
1
0.999513
4.43276e-320
4.43276e-320
4.43276e-320
4.43276e-320
4.43177e-320
4.43177e-320
4.43177e-320
4.43177e-320
4.43177e-320
4.43078e-320
4.43078e-320
4.43078e-320
4.43078e-320
4.43078e-320
4.43078e-320
4.43078e-320
4.43078e-320
4.43078e-320
4.43078e-320
4.42979e-320
4.42979e-320
4.4288e-320
4.4288e-320
4.4288e-320
-4.4288e-320
-4.42782e-320
-8.85464e-320
-4.57215e-315
-5.10332e-295
-2.39294e-274
-5.35742e-256
-6.58794e-231
-1.27583e-212
-2.33292e-195
-5.32796e-180
-2.30521e-165
-3.27481e-151
-1.41026e-137
-2.13293e-124
-1.41185e-111
-3.52928e-99
-2.70458e-87
-3.45958e-76
-3.54169e-66
-1.20808e-55
-8.56788e-46
-8.75958e-39
-4.63706e-33
-1.56801e-28
-1.84425e-25
-1.75337e-23
-1.00771e-22
-2.91761e-22
-6.26278e-22
-1.53236e-22
4.65535e-08
-3.25119e-08
6.72574e-07
1.33459e-06
1.20927e-06
9.73409e-07
2.41929e-06
2.52506e-06
2.52904e-06
5.0665e-06
4.39814e-06
3.27192e-06
0.00101248
4.9225e-07
4.96269e-07
4.8891e-07
0.0101171
0.0374911
0.0386813
0.036655
0.136304
0.387681
0.295323
0.080542
0.0222022
0.00330275
2.2891e-07
2.45439e-07
4.20002e-07
0.173061
0.727425
0.585433
0.0786258
0.0197084
0.0197096
0.0197079
0.0223539
0.115528
0.0528594
0.00438787
0.00434817
0.00434457
0.00434817
0.0161119
0.00964956
0.00201186
0.00201625
0.00204909
0.00273297
0.00610748
0.00666748
0.00537956
0.00518295
0.0147922
0.0368287
0.0362927
0.0340093
0.0289155
0.0182358
0.0116269
0.00756276
0.00444795
0.00234103
0.00126947
0.000680007
0.000370378
0.000178368
0.000474484
0.000329088
0.000128799
0.000199295
0.000201287
0.000102616
0.000190719
0.000285498
0.000356512
0.000422528
0.000419922
0.000304087
0.000128711
0.000101818
0.00010015
9.90395e-05
9.85461e-05
9.90395e-05
0.000100175
0.000102515
0.000109138
0.000119813
0.000130993
0.000166581
0.000481083
0.000820888
0.00108141
0.00125257
0.00139323
0.00155852
0.0017453
0.00191521
0.002025
0.00214837
0.00226672
0.0024088
0.0029512
0.00384523
0.00441597
0.00463807
0.00454702
0.00403996
0.00301164
0.00165029
0.000271973
0.000201535
0.00014261
8.45281e-05
4.19543e-05
1.36791e-05
7.87717e-06
3.53025e-05
5.14456e-05
6.12452e-05
0.000135117
0.000930651
0.00198079
0.00171607
0.000843672
0.000108845
4.81775e-06
4.81924e-06
5.09876e-06
9.46213e-06
1.50817e-06
1.49535e-06
0.000703263
0.00192348
0.000263832
0.000204642
0.000553646
0.000716247
0.000285463
1.73014e-05
1.60817e-05
2.32503e-05
0.000846032
0.00119801
0.0011983
0.00119801
0.00119508
0.000805736
1.45118e-07
3.38529e-07
2.71958e-07
1.5014e-07
0.000103086
0.000326782
0.000326748
0.000326917
0.000309685
5.54418e-05
5.07018e-05
0.000509226
0.000510723
1.08699e-06
7.34341e-07
7.34341e-07
7.34341e-07
2.22766e-06
1.83016e-06
0.00010198
0.000254823
0.000255065
0.000134564
4.35904e-07
2.06202e-06
4.51604e-06
5.72817e-06
4.36614e-06
3.05553e-06
3.05553e-06
2.93711e-06
0.104588
0.417665
0.29898
0.023313
4.02087e-06
2.31504e-06
2.31652e-06
0.335244
0.815934
0.739071
0.357039
0.133204
0.242892
0.759007
0.999512
-4.43276e-320
-4.43177e-320
-4.43177e-320
-4.43177e-320
-4.43177e-320
-4.43078e-320
-4.43078e-320
-4.43078e-320
-4.43078e-320
-4.43078e-320
-4.43078e-320
-4.43078e-320
-4.43078e-320
-4.42979e-320
-4.42979e-320
-4.4288e-320
-4.4288e-320
-4.4288e-320
-4.4288e-320
4.42782e-320
4.42683e-320
4.42683e-320
4.42584e-320
4.42485e-320
-4.42386e-320
-4.42288e-320
-8.84378e-320
-5.95943e-316
-6.69601e-296
-3.15751e-275
-7.10039e-257
-8.7584e-232
-1.69916e-213
-3.1083e-196
-7.09218e-181
-3.06165e-166
-4.33431e-152
-1.85802e-138
-2.79484e-125
-1.83871e-112
-4.56678e-100
-3.47739e-88
-4.42259e-77
-4.50683e-67
-1.53306e-56
-1.08712e-46
-1.11517e-39
-5.94917e-34
-2.03781e-29
-2.44233e-26
-2.40369e-24
-1.64882e-23
-5.87218e-23
-1.44342e-22
-3.45406e-23
-5.81253e-11
4.22648e-09
2.98105e-08
8.9871e-08
9.22761e-08
8.12388e-08
1.11064e-07
-9.83531e-08
1.70593e-07
2.56227e-07
2.45567e-07
1.83543e-07
1.50946e-07
4.10393e-06
3.44319e-06
3.52194e-07
2.19293e-07
2.22184e-07
1.24898e-07
4.45463e-07
9.5333e-07
0.000137122
1.45038e-06
7.8532e-07
4.30195e-07
1.82028e-07
2.18418e-07
2.39153e-07
2.45439e-07
0.00789367
0.0353035
0.025653
3.07031e-09
0.0547215
0.094173
0.0942
0.0941763
0.0505307
0.00077138
0.00962925
0.0168964
0.0168845
0.0113633
0.00324169
0.0027689
0.002733
0.00606232
0.00814827
0.00455039
0.000762456
2.85645e-05
2.35061e-05
1.65133e-05
2.47812e-06
0.00734994
0.0362855
0.0107647
6.2275e-05
4.7402e-05
4.46988e-05
4.47204e-05
0.000495037
0.00245836
0.00246595
0.0024657
0.000413428
2.10676e-05
3.50204e-05
6.2169e-05
0.000106358
0.000281243
0.000268829
3.64861e-05
0.000206358
0.000378587
0.000302873
9.92452e-05
0.000127049
0.000186069
0.00018427
0.000175317
0.000144033
0.000130933
9.93457e-05
0.000262453
0.0015591
0.00413405
0.00466961
0.00470605
0.00473026
0.00474199
0.00474558
0.00474593
0.00474594
0.00184066
6.35488e-10
6.03558e-10
6.16485e-05
0.00201195
0.00220619
0.0022191
0.00218891
0.000512082
0.000587599
0.00357349
0.00191725
0.000301115
0.000278155
0.000273682
0.000275323
0.00162294
0.00273241
0.00273241
0.00220187
0.000144627
1.36791e-05
8.18646e-06
6.44695e-06
2.95799e-05
6.09837e-05
6.44946e-05
0.00010025
0.000142656
6.10627e-05
2.73545e-05
2.74398e-05
3.38568e-05
1.8512e-05
5.60592e-06
1.58309e-06
1.5047e-06
1.49649e-06
1.49968e-06
1.49968e-06
0.000527423
0.000653016
0.000243921
0.000224758
0.000362098
0.000440154
0.000214321
1.8489e-05
1.78692e-05
9.28692e-05
0.0001603
0.000165159
0.000134744
0.000121844
0.000130088
0.000147259
0.000159717
0.000159726
0.000151623
5.02716e-05
0.000207622
0.000327116
0.000192275
0.000170364
0.000186778
0.000137652
9.69228e-05
9.64184e-05
9.85935e-05
9.93484e-05
7.92701e-05
3.86789e-05
1.27611e-05
2.75852e-06
1.0044e-06
7.73926e-07
4.66634e-07
4.3547e-07
4.41223e-07
0.00083624
0.00133895
0.00134342
0.00134053
0.00126249
0.000137835
6.5108e-05
6.99104e-06
6.58977e-06
6.20091e-06
4.20942e-06
2.51259e-06
2.32404e-06
2.32681e-06
2.07578e-06
2.03684e-06
2.07578e-06
2.16982e-06
2.34966e-06
2.56923e-06
0.0177701
0.138187
-4.43177e-320
-4.43177e-320
-4.43177e-320
-4.43078e-320
-4.43078e-320
-4.43078e-320
-4.43078e-320
-4.43078e-320
-4.43078e-320
-4.43078e-320
-4.43078e-320
-4.42979e-320
-4.4288e-320
-4.4288e-320
-4.4288e-320
-4.4288e-320
-4.42782e-320
-4.42683e-320
-4.42683e-320
4.42584e-320
4.42485e-320
4.42386e-320
4.42288e-320
4.42189e-320
-4.4209e-320
-4.41892e-320
-4.41695e-320
-7.37853e-317
-8.3154e-297
-3.93113e-276
-8.85142e-258
-1.09181e-232
-2.11532e-214
-3.85938e-197
-8.77149e-182
-3.76717e-167
-5.29969e-153
-2.25542e-139
-3.36541e-126
-2.19512e-113
-5.40389e-101
-4.07884e-89
-5.14489e-78
-5.20455e-68
-1.75982e-57
-1.24273e-47
-1.27249e-40
-6.79545e-35
-2.33791e-30
-2.82559e-27
-2.84413e-25
-2.26831e-24
-9.56858e-24
-2.60755e-23
-4.79131e-24
-9.6634e-12
1.30006e-10
1.84179e-09
3.11207e-09
4.69178e-09
4.71277e-09
7.78882e-09
9.58769e-09
1.04927e-09
1.29272e-08
1.30536e-08
1.05735e-08
8.25361e-09
1.10744e-07
1.71288e-07
4.04136e-07
3.58314e-07
2.52282e-07
-1.31187e-09
-1.26718e-08
2.5112e-08
5.14152e-08
4.43566e-08
9.27294e-08
1.58508e-07
9.7545e-08
1.79231e-07
3.73569e-07
3.71074e-07
1.20905e-08
4.42233e-09
3.07031e-09
2.88025e-09
2.85436e-09
2.87051e-09
8.09615e-07
1.41767e-08
1.12796e-08
9.90542e-09
0.00105031
0.00284235
0.0016997
7.02284e-08
0.00326241
0.0106003
0.0106366
0.0106369
0.0106363
0.0106274
0.00930499
0.000788112
3.07368e-08
8.62556e-07
1.05979e-06
7.64221e-07
0.000547917
0.00604893
0.00537488
0.000608308
4.66098e-05
4.47076e-05
4.62781e-05
9.26158e-05
4.06391e-05
0.00115245
0.00174363
0.00173575
0.000451806
3.04195e-05
3.04195e-05
3.68367e-05
3.68225e-05
1.34298e-05
1.21165e-05
1.35862e-05
6.10897e-06
5.14565e-07
1.0772e-08
4.435e-09
3.16505e-09
2.7089e-09
2.34305e-09
2.00289e-09
6.57824e-05
7.61033e-05
1.18083e-05
6.73703e-10
5.9662e-10
5.75484e-10
8.96656e-10
1.56849e-09
1.00527e-09
7.83583e-10
7.23778e-10
6.35488e-10
6.03558e-10
5.87215e-10
5.79075e-10
5.71616e-10
5.68566e-10
5.65147e-10
5.60118e-10
5.60115e-10
0.00123185
0.00582164
0.00594571
0.00596204
0.00596281
0.00596281
0.00596281
0.0030506
8.53802e-05
0.000140562
0.000552679
0.000397601
1.97978e-05
2.47098e-06
8.0323e-07
3.03704e-07
4.28929e-05
0.00159398
0.00189333
0.00190948
0.00191159
0.00133551
0.000108459
4.20066e-05
6.3278e-05
5.70298e-05
2.70942e-05
3.12701e-06
1.50459e-06
1.49581e-06
1.59862e-06
1.79936e-06
0.000165933
0.000245405
0.000250959
0.00025307
0.000147801
0.000120358
0.000105966
0.000109957
3.9775e-05
3.30537e-05
3.20586e-05
3.36157e-05
0.000104743
0.000132975
0.000132617
5.50869e-05
3.34319e-05
3.47682e-05
3.58269e-05
0.000101391
0.000318811
0.000304752
0.000144742
0.000135346
0.00011199
0.000102268
0.00020404
0.000205094
0.000204265
0.000203808
0.0002038
0.000203609
0.00016621
3.75167e-05
1.06589e-05
4.22687e-06
4.52473e-07
1.61254e-06
7.44903e-06
3.03425e-05
6.12886e-05
7.40567e-05
0.000241119
0.000283341
0.000283424
0.000283341
0.000185698
3.61617e-06
4.23846e-05
0.000443245
0.000491215
0.000494002
0.000492631
0.000250008
0.000203449
0.000201727
4.05139e-05
2.56128e-05
0.000175514
0.00014364
-4.43177e-320
-4.43177e-320
-4.43078e-320
-4.43078e-320
-4.43078e-320
-4.43078e-320
-4.43078e-320
-4.43078e-320
-4.43078e-320
-4.42979e-320
-4.4288e-320
-4.4288e-320
-4.4288e-320
-4.4288e-320
-4.42782e-320
-4.42683e-320
-4.42683e-320
-4.42584e-320
-4.42485e-320
4.42485e-320
4.42288e-320
4.42189e-320
4.4209e-320
4.41892e-320
-4.41695e-320
-4.41596e-320
-4.41398e-320
-8.24951e-318
-9.35062e-298
-4.42225e-277
-9.94822e-259
-1.22433e-233
-2.36356e-215
-4.2912e-198
-9.69306e-183
-4.13244e-168
-5.76454e-154
-2.43022e-140
-3.58936e-127
-2.31609e-114
-5.63895e-102
-4.20963e-90
-5.25411e-79
-5.26351e-69
-1.76462e-58
-1.23748e-48
-1.26083e-41
-6.71518e-36
-2.30987e-31
-2.79954e-28
-2.86233e-26
-2.6053e-25
-1.26818e-24
-3.75727e-24
3.10165e-20
-3.58859e-14
4.66883e-12
5.38129e-11
1.31336e-10
6.50232e-11
2.07842e-10
3.05514e-10
3.83124e-10
3.53441e-10
-7.48897e-10
5.2701e-10
4.46102e-10
3.53905e-10
2.87968e-10
2.44006e-10
5.26039e-09
8.55099e-09
3.47488e-08
1.38468e-08
-3.0429e-10
-2.02831e-09
1.21822e-09
1.2031e-09
4.68646e-09
1.40074e-08
1.66781e-08
1.82384e-08
2.58506e-08
4.03573e-08
3.26369e-08
1.49775e-08
3.81941e-08
4.12112e-08
4.09776e-08
4.10068e-08
1.79516e-08
1.98666e-08
1.01666e-08
5.20186e-09
9.89844e-09
5.62257e-07
1.20081e-08
9.99225e-09
7.37615e-09
8.74802e-09
9.0088e-09
2.02489e-07
3.39213e-09
2.58561e-09
2.93042e-09
3.37247e-09
1.14657e-08
3.83981e-07
1.14378e-06
1.0901e-07
4.14922e-08
1.52875e-05
9.98062e-05
0.000133846
0.000131411
0.000129265
0.000128607
0.000127248
3.74105e-05
8.77023e-06
4.72083e-05
0.000110449
0.00014589
0.000141423
0.000136836
0.000135099
0.000132244
9.27507e-05
7.37579e-06
1.00636e-07
4.17593e-08
2.08848e-08
9.05123e-09
4.30481e-09
3.22274e-09
6.23637e-09
3.9864e-09
1.37351e-09
9.96086e-10
7.96305e-10
6.73703e-10
5.9662e-10
5.26972e-10
5.35105e-10
7.99687e-10
2.31202e-09
6.95973e-09
1.27147e-08
1.333e-08
1.17064e-08
8.27656e-09
4.01359e-09
1.84614e-09
2.00087e-09
1.72781e-09
5.63537e-10
5.60115e-10
6.89235e-07
1.39069e-05
6.15952e-05
0.00013049
0.000133835
0.000123294
0.000105051
7.5862e-05
6.97043e-05
7.3011e-05
5.02597e-05
2.31895e-05
1.45564e-05
1.11899e-05
1.94826e-06
3.03704e-07
1.24564e-07
7.88938e-08
1.61796e-07
0.000504603
0.00190373
0.00193766
0.00194926
0.0019523
0.00195292
0.00195245
0.00195246
0.0006636
5.73196e-06
2.64172e-06
1.59859e-06
1.79933e-06
4.99466e-06
6.59815e-06
2.01713e-05
2.89068e-05
4.06553e-05
5.0872e-05
6.16349e-05
0.000104994
0.000109957
4.74057e-05
3.20586e-05
3.15256e-05
3.1529e-05
3.15184e-05
3.15649e-05
3.16429e-05
3.17758e-05
3.21353e-05
3.39987e-05
3.53895e-05
3.76651e-05
3.77754e-05
0.000131088
0.000202724
0.00020266
0.000180837
0.000152618
0.0002022
0.000203718
0.000203003
0.0002036
0.000203608
0.000203648
0.000203431
0.000203087
0.000202905
7.02525e-05
1.48656e-06
1.6434e-06
9.71846e-07
5.78874e-07
2.38785e-07
9.15508e-08
3.99951e-08
4.08506e-06
1.52545e-05
6.73841e-05
5.70166e-05
1.31419e-06
2.95468e-05
0.000111742
7.40753e-05
1.18412e-05
0.000199237
0.000298178
0.000302615
0.000302986
0.000302986
0.000302972
0.000290823
0.000131317
-4.43177e-320
-4.43078e-320
-4.43078e-320
-4.43078e-320
-4.43078e-320
-4.43078e-320
-4.43078e-320
-4.43078e-320
-4.42979e-320
-4.42979e-320
-4.4288e-320
-4.4288e-320
-4.4288e-320
-4.42782e-320
-4.42683e-320
-4.42683e-320
-4.42584e-320
-4.42485e-320
-4.42386e-320
4.42288e-320
4.42189e-320
4.4209e-320
4.41892e-320
4.41695e-320
-4.41497e-320
-4.41299e-320
-4.41102e-320
-7.93548e-319
-9.09932e-299
-4.29797e-278
-9.64373e-260
-1.18214e-234
-2.26981e-216
-4.09331e-199
-9.17228e-184
-3.87457e-169
-5.34937e-155
-2.22988e-141
-3.25384e-128
-2.07306e-115
-4.98169e-103
-3.67051e-91
-4.52305e-80
-4.47654e-70
-1.48419e-59
-1.03075e-49
-1.04183e-42
-5.51584e-37
-1.89022e-32
-2.28888e-29
-2.3683e-27
-2.43017e-26
-1.34325e-25
-4.31934e-25
1.2298e-21
-5.78206e-20
1.57176e-13
1.47363e-12
5.05769e-12
9.57672e-12
1.19377e-11
6.24714e-12
6.95954e-12
1.3008e-11
1.38767e-11
-3.27091e-12
-2.28753e-11
-1.61692e-11
1.13007e-11
9.08074e-12
8.40899e-12
3.47176e-12
4.056e-12
-1.87465e-12
-1.41492e-11
-7.34638e-12
-5.22977e-11
-3.09559e-11
-1.63285e-11
1.68516e-11
1.3556e-11
8.87993e-12
6.98218e-12
7.57097e-12
5.15271e-10
6.9646e-10
2.24235e-09
3.5232e-09
4.75926e-09
8.28275e-09
1.41154e-08
1.44399e-08
8.48372e-09
3.4644e-09
2.55715e-10
2.89687e-10
4.14569e-09
8.22252e-09
6.42784e-09
8.24666e-09
9.03949e-09
5.55962e-09
2.24974e-09
2.13637e-09
2.54019e-09
3.67919e-09
4.72716e-09
3.3405e-09
1.28536e-09
8.20715e-11
1.29842e-10
1.44831e-09
3.42277e-09
4.4263e-09
7.1664e-07
1.89776e-06
3.24332e-06
4.57193e-06
5.11075e-06
4.47136e-06
3.16042e-06
1.67644e-06
8.87379e-07
1.431e-06
1.78168e-06
1.64146e-06
1.24875e-06
5.1204e-07
2.45555e-07
6.69409e-08
1.14841e-08
5.49678e-09
4.42535e-09
2.71943e-09
1.2002e-09
3.43087e-10
6.44867e-10
2.787e-09
3.8899e-09
3.87166e-09
3.78839e-09
2.64224e-09
6.91332e-10
2.89827e-10
3.77832e-09
3.27726e-08
5.0566e-08
5.20123e-08
5.25507e-08
5.26965e-08
5.25935e-08
4.24108e-08
8.95763e-09
4.93581e-13
6.25242e-10
3.70072e-09
1.01498e-08
6.02491e-09
-1.68199e-09
-5.85418e-09
-1.13473e-08
6.33591e-09
6.97184e-09
6.52343e-09
5.40466e-09
4.27812e-09
2.08387e-07
5.46241e-08
3.31929e-08
1.50176e-09
1.20745e-07
8.5764e-07
6.87218e-07
1.75539e-08
9.07126e-09
7.83795e-07
4.73886e-06
2.28592e-05
4.85294e-05
4.35385e-05
3.84718e-05
8.30298e-05
0.000265288
0.000629926
0.000662488
0.000613478
0.000548462
0.000375043
0.00045577
0.000478063
0.000478111
0.00047237
0.000461418
0.000211335
6.5339e-05
6.71138e-05
6.95036e-05
7.13025e-05
5.01857e-05
3.48119e-05
3.20586e-05
4.04698e-05
5.26145e-05
4.72106e-05
3.3302e-05
3.21353e-05
3.88974e-05
7.65219e-05
7.46582e-05
6.74116e-05
3.9134e-05
4.80997e-05
0.000108102
0.00020266
0.000198849
0.000194795
0.00016348
0.000153732
0.000154482
0.000178185
0.000203074
0.000203431
0.000203087
0.000202905
0.000193253
4.70029e-05
2.57438e-06
1.00863e-06
4.47016e-07
1.763e-07
6.59018e-08
2.60833e-08
1.22107e-08
6.10534e-09
3.73291e-09
3.67726e-09
4.44812e-09
2.40526e-07
1.6323e-07
7.26204e-09
9.25756e-09
6.61645e-08
1.09787e-06
7.24357e-06
3.75605e-05
4.53127e-05
1.94493e-05
2.88341e-05
0.000170385
0.000153943
-4.43078e-320
-4.43078e-320
-4.43078e-320
-4.43078e-320
-4.43078e-320
-4.43078e-320
-4.43078e-320
-4.43078e-320
-4.42979e-320
-4.4288e-320
-4.4288e-320
-4.4288e-320
-4.4288e-320
-4.42683e-320
-4.42683e-320
-4.42683e-320
-4.42485e-320
-4.42485e-320
-4.42288e-320
4.42288e-320
4.4209e-320
4.41991e-320
4.41794e-320
4.41695e-320
-4.41497e-320
-4.41201e-320
-4.40904e-320
-8.81413e-320
-7.21487e-300
-3.39959e-279
-7.5995e-261
-9.26714e-236
-1.76748e-217
-3.16154e-200
-7.01758e-185
-2.93281e-170
-4.0016e-156
-1.64685e-142
-2.37048e-129
-1.48877e-116
-3.5252e-104
-2.55896e-92
-3.10737e-81
-3.03216e-71
-9.91998e-61
-6.80609e-51
-6.80655e-44
-3.57208e-38
-1.21583e-33
-1.46654e-30
-1.53145e-28
-1.7546e-27
-1.08842e-26
-3.8302e-26
-9.6415e-29
-1.40773e-20
2.67201e-15
2.4191e-14
1.00747e-13
2.07783e-13
2.80054e-13
3.54729e-13
4.66718e-13
5.52236e-13
6.25788e-13
4.64212e-13
2.45661e-13
9.19231e-13
2.41869e-12
3.59808e-12
2.91281e-12
8.30279e-13
4.708e-13
4.98448e-13
3.34572e-13
2.5261e-13
3.27338e-13
1.21637e-13
1.97328e-13
1.79346e-12
2.79785e-12
7.02902e-13
3.38037e-13
4.72502e-13
8.34275e-13
8.48969e-13
8.59243e-13
6.57814e-13
6.93016e-13
1.14349e-11
2.5612e-10
3.0419e-10
3.9671e-10
4.21027e-10
1.64108e-10
2.90327e-12
2.49325e-11
7.84666e-11
1.11355e-10
2.21279e-10
4.15592e-10
4.07676e-10
3.72492e-10
3.64297e-10
2.745e-10
2.59726e-10
2.29519e-10
7.10148e-11
1.16012e-12
-1.84375e-11
-6.22569e-11
-2.44266e-10
-2.45928e-10
-1.27309e-10
3.68233e-11
-2.08155e-10
-4.86143e-10
6.37374e-11
6.74814e-11
5.82911e-11
4.3112e-11
1.01919e-09
4.24096e-09
4.91701e-09
1.22909e-11
4.87941e-12
1.76288e-12
8.56082e-13
4.66527e-13
3.03867e-13
2.39433e-13
3.0207e-13
3.95803e-13
5.66849e-13
7.90936e-13
7.95028e-13
6.90114e-13
6.22856e-13
5.93059e-13
5.6265e-13
5.24265e-13
5.11208e-13
5.00834e-13
4.98364e-13
4.9132e-13
4.89824e-13
4.89254e-13
4.89089e-13
4.89254e-13
4.89089e-13
4.9096e-13
4.90993e-13
4.91103e-13
4.9321e-13
7.09609e-13
6.6164e-12
3.97506e-11
1.5126e-12
-5.05703e-12
-3.94719e-11
-3.17719e-10
-2.99039e-10
-2.26978e-10
-1.44647e-10
3.48799e-11
-2.43793e-10
2.68899e-11
2.32778e-11
1.89896e-11
1.40853e-11
1.1808e-11
1.66817e-09
5.6275e-09
1.08299e-08
8.92106e-09
4.63045e-09
-5.04215e-10
-2.85065e-09
-1.21442e-09
3.71453e-09
3.55927e-09
7.13397e-09
2.74102e-08
6.1422e-08
1.06552e-05
2.49498e-05
1.50579e-05
7.73008e-05
0.00021905
9.51037e-05
4.26959e-06
0.000306134
0.000437891
0.000404699
0.000389824
0.000387105
0.000366883
0.000381349
0.000379066
0.000359018
0.000244738
0.000340031
0.000342318
0.000341678
0.000341735
0.00020134
3.42589e-05
3.96562e-05
7.92323e-05
6.08352e-05
4.85106e-05
0.000149818
0.000191218
0.000198015
0.000194795
0.000193962
0.000193313
0.000183893
0.000148059
0.000144914
0.000195657
0.000201811
0.00020218
0.000106091
4.19173e-06
5.62707e-07
3.44387e-07
1.81301e-07
8.04754e-08
3.47344e-08
1.66255e-08
8.7868e-09
5.27379e-09
3.27921e-09
2.2904e-09
1.83866e-09
1.49378e-09
1.14024e-09
2.07964e-10
-5.5542e-10
-2.55612e-10
3.31853e-10
6.36931e-10
1.04592e-09
2.36936e-09
3.36989e-09
4.5202e-09
2.0936e-07
2.39905e-06
9.77598e-06
-4.43078e-320
-4.43078e-320
-4.43078e-320
-4.43078e-320
-4.43078e-320
-4.43078e-320
-4.43078e-320
-4.43078e-320
-4.42979e-320
-4.4288e-320
-4.4288e-320
-4.4288e-320
-4.42782e-320
-4.42683e-320
-4.42683e-320
-4.42683e-320
-4.42485e-320
-4.42485e-320
-4.42288e-320
4.42288e-320
4.4209e-320
4.41892e-320
4.41794e-320
4.41596e-320
-4.41398e-320
-4.41201e-320
-4.40904e-320
-8.81314e-320
-4.25224e-301
-1.99704e-280
-4.44401e-262
-5.38659e-237
-1.01954e-218
-1.80695e-201
-3.96832e-186
-1.63876e-171
-2.20691e-157
-8.95543e-144
-1.2699e-130
-7.85143e-118
-1.82926e-105
-1.30628e-93
-1.56064e-82
-1.49893e-72
-4.83033e-62
-3.26785e-52
-3.22699e-45
-1.67512e-39
-5.65047e-35
-6.77547e-32
-7.1289e-30
-9.04949e-29
-6.24285e-28
-2.42931e-27
-1.42592e-29
-8.98398e-21
2.65805e-17
2.3588e-16
9.97922e-16
2.27863e-15
3.3763e-15
4.45298e-15
5.84689e-15
7.05557e-15
4.97622e-15
1.46315e-14
5.31451e-14
1.33026e-13
2.06801e-13
2.80294e-13
3.11766e-13
3.42119e-13
3.48628e-13
3.48333e-13
4.07268e-13
4.25087e-13
3.8232e-13
3.4077e-13
3.83311e-13
4.97826e-13
5.99534e-13
6.74065e-13
7.31077e-13
7.40789e-13
7.37122e-13
7.17187e-13
6.57262e-13
2.59811e-13
4.14724e-14
3.91445e-14
3.55757e-14
3.75408e-14
1.89929e-13
7.474e-13
4.87599e-13
3.32303e-13
6.13164e-13
7.76079e-13
7.46422e-13
1.00666e-13
4.69565e-14
5.53714e-13
1.50388e-12
2.77712e-12
2.90333e-12
2.82067e-12
2.05665e-12
1.53988e-12
7.57028e-13
6.35889e-14
2.63776e-14
-6.8299e-13
-7.51498e-13
1.26287e-13
1.7087e-13
2.00361e-13
-8.10415e-12
-5.32529e-12
2.44744e-13
2.28702e-13
2.17356e-13
7.56439e-12
2.3039e-11
2.5982e-11
1.34285e-11
1.1122e-12
1.53728e-13
1.76438e-13
1.80616e-13
1.81466e-13
1.81383e-13
2.41765e-13
4.16818e-13
6.27977e-13
8.96708e-13
1.13227e-12
1.21487e-12
1.21781e-12
1.21745e-12
1.19789e-12
1.13901e-12
1.02676e-12
8.94467e-13
7.59778e-13
6.34718e-13
5.41689e-13
5.01671e-13
5.05026e-13
5.24606e-13
5.67551e-13
6.45239e-13
7.42197e-13
8.38129e-13
9.15206e-13
9.7186e-13
1.0128e-12
1.01281e-12
8.99279e-13
2.07787e-13
-9.14505e-15
-2.64797e-14
-7.84599e-13
-1.00684e-12
-5.6746e-13
-4.78947e-13
2.79438e-13
-1.0426e-12
-1.65567e-12
5.35189e-13
5.96325e-13
6.48345e-13
7.10647e-13
6.50039e-13
6.14388e-11
1.22544e-11
-2.47335e-12
-6.25638e-12
-2.54093e-11
-2.73813e-11
-5.9478e-10
-8.5034e-10
-4.45241e-10
-1.19225e-09
-1.01798e-10
-4.91622e-09
4.34388e-09
6.04293e-09
1.60836e-08
2.91753e-08
4.32093e-08
6.13247e-07
7.08262e-06
2.50954e-05
2.64072e-05
4.15097e-06
0.000173218
0.000268914
7.36821e-05
5.60666e-06
0.000163096
0.000325067
0.000337303
0.000341621
0.000342347
0.000341621