/*--------------------------------*- C++ -*----------------------------------*\
| =========                 |                                                 |
| \\      /  F ield         | OpenFOAM: The Open Source CFD Toolbox           |
|  \\    /   O peration     | Version:  2406                                  |
|   \\  /    A nd           | Website:  www.openfoam.com                      |
|    \\/     M anipulation  |                                                 |
\*---------------------------------------------------------------------------*/
FoamFile
{
    version     2.0;
    format      ascii;
    arch        "LSB;label=32;scalar=64";
    class       volScalarField;
    location    "0.2";
    object      p_rgh;
}
// * * * * * * * * * * * * * * * * * * * * * * * * * * * * * * * * * * * * * //

dimensions      [1 -1 -2 0 0 0 0];

internalField   nonuniform List<scalar> 
6250
(
2263.41
2598.71
3870.82
4063.6
3780.27
3649.8
3683.24
3730.49
3737.17
3724.79
3717.23
3717.1
3718.45
3718.25
3717.13
3716.2
3715.74
3715.52
3715.39
3715.4
3715.6
3716.04
3716.74
3717.72
3719.02
3720.68
3722.74
3725.25
3728.25
3731.8
3735.94
3740.72
3746.19
3752.37
3759.3
3766.95
3775.3
3784.26
3793.71
3803.46
3813.23
3822.7
3831.46
3839.03
3844.97
3848.8
3850.19
3848.87
3845
3838.73
3831.07
3827.41
3815.76
3854.29
3808.21
3043.71
2486.45
2416.66
2547.07
2723.42
2772.76
2694.75
2584.08
2511.17
2464.95
2413.46
2334.55
2229.54
2111.22
1993.47
1891.33
1815.38
1766.42
1735.53
1713.22
1693.7
1670.04
1632.23
1576.54
1506.88
1427.72
1346.86
1273.8
1220.35
1196.89
1202.21
1217.55
1225.23
1224.75
1222.85
1216.94
1200.63
1172.79
1136.51
1095.29
1049.96
1000.42
947.096
892.193
839.096
789.926
744.861
703.742
666.531
633.197
602.34
573.181
547.311
528.265
514.046
499.778
482.791
463.259
441.39
416.609
388.673
358.237
326.401
294.477
264.221
237.395
214.902
196.592
181.975
170.858
163.385
159.853
160.682
166.296
177.117
193.581
216.03
244.59
279.147
319.503
365.64
417.51
475.178
536.175
598.393
660.412
721.318
780.093
835.427
885.953
930.651
969.086
1001.42
1028.03
1049.2
1064.87
1074.36
1077.65
1076.38
1072.66
1068.36
1064
1058.95
1052.68
1045.13
1036.7
1027.72
1017.8
1006.1
991.162
972.462
950.628
927.338
904.661
883.41
863.552
844.922
827.583
811.649
796.974
783.241
770.015
757.332
745.08
733.838
723.208
710.921
694.138
670.434
640.533
603.723
559.578
510.731
451.098
381.172
292.005
189.894
76.6469
-43.1783
-164.624
-284.8
-402.859
-517.879
-627.897
-728.207
-812.803
-877.479
-920.477
-946.026
-957.215
-954.896
-938.938
-909.205
-866.942
-813.058
-748.309
-672.513
-584.447
-482.138
-363.819
-230.156
-72.0741
87.1027
251.267
401.66
516.643
588.159
620.531
631.228
635.219
638.137
644.742
656.606
670.106
678.152
676.455
665.509
650.097
637.439
638.228
659.049
692.829
714.725
703.141
655.512
586.253
509.574
431.561
352.39
270.706
186.678
102.758
22.211
-46.5442
-58.8652
2258.51
2592.32
3869.37
4064.41
3780.04
3648.4
3681.78
3729.43
3736.22
3723.71
3716
3715.77
3717.03
3716.7
3715.41
3714.29
3713.6
3713.12
3712.69
3712.35
3712.15
3712.14
3712.32
3712.72
3713.36
3714.26
3715.48
3717.05
3719
3721.38
3724.25
3727.66
3731.66
3736.3
3741.63
3747.7
3754.54
3762.14
3770.47
3779.41
3788.78
3798.34
3807.74
3816.53
3824.16
3830
3833.46
3834
3831.47
3826.13
3818.97
3818.35
3840.56
3893.94
3873.65
3647.46
3344.59
2802.82
2693.95
3149.46
3229.46
2882.42
2635.71
2568.17
2539.88
2478.86
2387.17
2277.66
2154.86
2031.84
1929.57
1856.09
1807.34
1771.06
1739.27
1720.24
1708.53
1675.96
1611.9
1532.12
1454.49
1375.6
1303.12
1245.78
1213.45
1221.58
1245.84
1252.62
1252.2
1255.83
1258.5
1251
1232.3
1202.66
1168.92
1131.62
1085.11
1024.45
954.441
885.496
823.457
765.293
710.109
664.343
631.126
605.227
580.451
557.859
540.676
525.051
506.101
484.296
461.445
439.605
416.071
389.157
359.879
330.275
299.838
269.993
242.94
219.701
199.782
183.159
170.37
161.474
156.334
155.273
158.674
167.05
181.32
202.332
230.367
264.979
306.077
355.583
411.09
470.279
533.096
598.019
663.006
726.88
788.455
846.552
899.793
946.399
985.104
1016.04
1041.1
1061.59
1078.42
1088.31
1089.89
1088.47
1082.76
1077.07
1072.4
1068.85
1064.65
1057.41
1047.57
1037.43
1028.74
1020.36
1009.69
993.285
969.376
941.548
915.992
894.176
874.29
854.202
833.911
815.078
798.762
784.94
772.343
758.786
743.033
726.419
713.038
700.498
683.122
661.196
625.012
576.297
523.469
473.251
436.211
394.102
333.611
244.188
134.958
22.8609
-88.8026
-207.87
-338.275
-477.009
-620.831
-754.31
-861.685
-936.245
-984.827
-1016.49
-1037.84
-1049.12
-1045.96
-1025.28
-989.1
-943.617
-889.93
-826.304
-752.766
-669.489
-574.012
-450.313
-268.261
-29.7313
196.724
399.378
559.768
653.071
663.659
626.067
581.974
544.125
539.895
572.105
614.431
641.389
647.188
636.538
618.427
597.229
576.605
588.441
638.079
680.551
680.935
635.173
565.209
492.023
421.054
348.572
271.808
189.59
103.64
15.7179
-63.809
-75.2481
2259.31
2593.7
3869.84
4064.26
3779.84
3648.41
3681.9
3729.52
3736.26
3723.71
3715.97
3715.71
3716.92
3716.55
3715.19
3714
3713.22
3712.65
3712.11
3711.62
3711.26
3711.05
3710.99
3711.09
3711.36
3711.82
3712.5
3713.4
3714.53
3715.91
3717.55
3719.46
3721.63
3724.07
3726.76
3729.68
3732.81
3736.11
3739.54
3743.06
3746.64
3750.23
3753.77
3757.18
3760.4
3763.36
3766.09
3768.78
3771.93
3776.83
3785.2
3799.82
3819.29
3834.63
3826.85
3727.72
3456.14
3066.14
2865.39
2932.39
2732.74
2316.07
2220.11
2491.82
2740.36
2790.98
2646.2
2412.68
2152.08
1908.23
1698.91
1608.71
1645.4
1712.9
1732.86
1752.29
1755.1
1742.75
1718.68
1667.15
1577.53
1390.97
1159.68
953.764
972.275
1177.59
1359.88
1308.21
1206.42
1251.94
1337.77
1341.81
1275.58
1206.48
1150.21
1076.5
996.511
908.679
823.658
768.125
736.549
702.331
668.284
655.957
656.878
648.858
581.582
472.841
475.463
528.152
539.584
501.635
462.667
444.795
429.002
401.924
369.86
333.774
294.677
255.921
225.057
203.004
183.281
164.411
150.792
142.73
138.255
138.462
142.502
148.637
158.69
175.005
197.283
224.107
252.984
285.649
332.496
397.373
477.647
559.81
629.631
694.425
763.68
837.984
910.447
970.046
1010.36
1032.95
1055.58
1088.25
1126.38
1153.89
1150.35
1114.74
1077.44
1057.05
1061.35
1076.59
1083.26
1074.82
1057.3
1044.51
1049.31
1066.61
1077.32
1057.96
1002.59
940.376
904.032
887.549
874.776
853.299
825.471
802.042
784.446
769.307
752.338
743.11
754.938
778.264
804.935
810.736
799.982
790.666
782.916
770.562
748.446
719.523
679.361
580.723
469.851
342.002
160.961
-50.4009
-241.706
-391.448
-518.17
-639.915
-769.777
-905.283
-1027.1
-1136.89
-1233.33
-1290.18
-1300.01
-1285.09
-1246.07
-1182.13
-1084.66
-973.352
-856.393
-740.37
-625.228
-508.275
-379.023
-195.005
165.736
211.587
336.749
557.889
690.909
742.217
774.926
785.386
795.288
790.281
759.056
670.884
654.531
660.786
643.064
587.063
509.333
443.016
424.301
516.779
707.854
894.559
906.765
728.687
559.435
463.865
405.461
345.531
271.817
181.494
79.8124
-29.9317
-128.806
-123.793
2258.08
2591.62
3868.49
4063.41
3779.07
3647.54
3680.95
3728.51
3735.22
3722.63
3714.81
3714.46
3715.56
3715.06
3713.56
3712.2
3711.23
3710.43
3709.63
3708.86
3708.16
3707.57
3707.09
3706.7
3706.43
3706.27
3706.25
3706.37
3706.63
3707.04
3707.59
3708.29
3709.11
3710.05
3711.07
3712.15
3713.22
3714.23
3715.08
3715.69
3715.93
3715.69
3714.83
3713.24
3710.85
3707.61
3703.56
3698.75
3693.22
3686.86
3678.9
3667.19
3647.49
3609.47
3546.82
3433.53
3358.19
3267.12
3010.26
2618.25
2308.27
2095.33
2133.76
2269.06
2186.31
2106.8
2051.86
2064.09
2007.95
1977.27
1810.47
1623.79
1715.65
1859.98
1755.58
1721.13
1838.86
1906.06
1809.53
1614.09
1489.44
1433.58
1409.25
985.868
543.983
955.841
1546.14
1728.09
1490.55
1185.2
1066.09
965.8
1024.56
1061.96
975.297
803.936
730.993
674.793
646.566
641.293
633.704
627.461
652.655
693.779
724.126
734.331
717.655
662.846
576.044
529.623
480.264
489.918
479.566
438.707
403.393
371.836
331.687
285.464
238.843
196.141
162.34
134.839
116.402
96.0665
70.1468
40.7558
8.88092
-18.9296
-39.109
-50.473
-46.993
-26.1141
15.3398
80.7866
166.244
270.255
384.651
502.404
611.087
706.552
795.455
906.584
1004.51
1076.3
1123.34
1145.93
1156.77
1168.78
1200.62
1227.69
1215.9
1165
1103.59
1074.84
1086.08
1122.94
1164
1159.9
1106.79
1044.85
1028.13
1024.46
1032.7
1051.46
1048.07
995.187
905.296
863.514
868.182
864.032
840.466
811.067
790.037
777.57
768.14
756.579
738.606
730.362
779.337
831.214
852.295
838.661
825.587
823.488
820.69
809.495
783.771
734.061
641.119
502.547
362.554
225.21
67.4438
-125.826
-309.527
-463.304
-590.657
-695.961
-794.133
-892.561
-992.718
-1091.58
-1184.59
-1256.1
-1280.66
-1263.06
-1217.6
-1146.7
-1047.98
-921.871
-780.244
-636.414
-492.268
-348.33
-205.99
-74.1362
41.377
25.7824
444.544
793.446
764.842
765.145
798.769
831.805
883.382
943.955
996.619
982.054
932.859
909.223
888.366
871.201
859.65
741.651
140.767
-70.2743
668.642
1329.87
1354
753.628
515.441
479.565
428.418
389.14
327.604
210.982
-11.7312
-348.674
-503.239
-317.368
2257.43
2590.81
3868.16
4063.2
3778.73
3647.11
3680.48
3728.03
3734.7
3722.04
3714.14
3713.7
3714.7
3714.08
3712.44
3710.91
3709.76
3708.75
3707.71
3706.66
3705.65
3704.7
3703.81
3702.96
3702.15
3701.4
3700.69
3700.03
3699.41
3698.82
3698.25
3697.67
3697.07
3696.41
3695.66
3694.77
3693.68
3692.32
3690.6
3688.42
3685.66
3682.17
3677.8
3672.36
3665.61
3657.28
3647.04
3634.41
3618.76
3599.16
3574.28
3542.02
3499.86
3442.71
3366.96
3257.27
3123.87
2933.51
2747.07
2676.36
2702.59
2731.45
2614.64
2276.07
1898.89
1707.36
1662.87
1719.65
1873.8
1930.06
1953.48
1977.24
1956.5
1858.24
1751.32
1671.15
1641.4
1576.79
1506.32
1491.92
1518.42
1575.66
1603.2
1441.54
1154.77
1054.22
1453.53
1177.74
1014.87
924.899
876.855
901.397
994.432
902.071
774.438
727.542
716.744
705.113
677.352
647.374
650.762
661.573
681.507
721.722
788.121
800.795
769.539
739.95
637.431
408.235
390.364
476.937
460.01
358.609
318.954
291.432
257.751
231.87
208.055
180.255
151.871
119.534
94.0382
69.4191
36.3304
-0.885762
-37.0932
-69.0757
-92.0537
-99.9265
-89.7008
-58.1704
-1.40074
82.5468
192.311
319.687
452.174
577.178
684.086
772.829
861.904
958.786
1052.71
1122.45
1165.31
1190.17
1207.96
1231.43
1269.66
1283.49
1227.57
1134.35
1066.4
1062.26
1113.13
1178.44
1226.15
1210.48
1115.57
1047.18
1033.37
1017.35
983.232
940.748
873.02
823.477
826.015
850.324
877.152
872.377
834.265
805.979
792.464
783.178
769.637
748.919
727.076
714.92
720.382
736.527
750.412
763.005
777.631
791.771
798.359
791.228
771.474
737.01
669.514
501.218
369.096
290.606
149.464
-33.1881
-198.682
-327.699
-443.303
-558.919
-686.233
-833.265
-957.066
-1051.54
-1111.96
-1132.65
-1140.05
-1139.51
-1122.75
-1091.01
-1040.83
-949.892
-822.883
-684.163
-542.847
-422.533
-317.538
-205.178
-89.9543
100.375
484.74
734.632
781.754
789.761
798.869
816.445
847.491
891.964
941.854
966.05
969.338
988.606
1028.86
1065.19
1082.39
1032.41
894.15
740.797
723.727
661.224
561.964
485.133
457.545
461.036
391.731
424.314
413.12
360.463
351.394
-101.574
-893.902
-751.886
2256.62
2589.56
3867.38
4062.62
3778.03
3646.27
3679.59
3727.11
3733.73
3720.98
3712.98
3712.43
3713.31
3712.54
3710.73
3709.02
3707.65
3706.4
3705.08
3703.72
3702.36
3701.01
3699.66
3698.31
3696.94
3695.54
3694.12
3692.66
3691.15
3689.56
3687.88
3686.08
3684.12
3681.97
3679.57
3676.87
3673.8
3670.28
3666.2
3661.46
3655.93
3649.44
3641.82
3632.85
3622.26
3609.74
3594.87
3577.16
3555.98
3530.5
3499.71
3462.24
3416.42
3359.77
3289.89
3202.62
3097.55
2974.43
2854.42
2744.78
2609.73
2422.16
2221.53
2077.67
1998.02
1981.87
2012.83
2056.04
2096.49
2136.47
2181.15
2193.07
2095.02
1907.73
1763.4
1626.13
1418.46
1328.02
1340.01
1357.05
1351.73
1346
1425.8
1481.75
1499.43
1416
1231.56
1144.31
1051.05
1032.19
990.821
958.929
854.869
767.61
687.283
711.519
769.262
710.839
611.995
575.268
573.897
579.195
597.479
664.116
745.765
776.675
762.777
743.485
704.813
608.467
413.966
350.868
361.718
347.907
325.05
304.522
284.656
258.82
217.102
165.13
141.935
138.591
126.856
108.631
81.3246
47.6379
11.6899
-21.3037
-49.5298
-66.4728
-64.5079
-44.6883
-5.11866
57.6888
141.14
238.259
343.977
450.39
551.1
648.371
761.402
907.752
1019.61
1073.48
1106.87
1127.36
1133.76
1133.9
1135.34
1132.86
1124.47
1112.49
1100.52
1102.6
1129.5
1156.08
1172.54
1152.7
1109.98
1066.29
1036.62
1024.86
1017.23
1012.91
1008.95
1000.12
951.488
860.28
802.308
786.912
779.51
772.57
771.075
771.745
766.533
762.829
766.567
772.589
779.831
787.068
791.176
795.34
804.198
811.585
813.325
806.723
784.108
745.748
682.567
565.719
383.952
231.575
93.0721
-64.2039
-245.455
-414.341
-561.302
-703.452
-845.303
-974.88
-1081.25
-1163.14
-1222.33
-1261.37
-1276.7
-1267.93
-1232.76
-1178.98
-1106.14
-1007.72
-873.151
-724.25
-577.716
-421.72
-271.536
-114.448
59.5603
245.605
411.488
543.741
646.388
723.533
778.308
831.465
887.166
945.503
1004.91
1057.44
1103.2
1149.21
1193.4
1239.8
1297.03
1339.14
1376.15
1294.53
845.453
367.75
293.573
285.362
280.68
283.502
300.621
361.552
410.952
416.652
411.361
361.569
264.938
73.2419
2255.86
2588.45
3866.76
4062.2
3777.5
3645.63
3678.9
3726.4
3732.96
3720.14
3712.05
3711.4
3712.16
3711.26
3709.29
3707.4
3705.83
3704.34
3702.77
3701.11
3699.41
3697.69
3695.92
3694.09
3692.18
3690.2
3688.11
3685.91
3683.57
3681.07
3678.37
3675.44
3672.24
3668.72
3664.83
3660.49
3655.64
3650.18
3644
3637
3629.03
3619.92
3609.5
3597.55
3583.81
3567.98
3549.7
3528.55
3504.02
3475.52
3442.33
3403.59
3358.31
3305.46
3244.05
3173.56
3093.8
3004.18
2903.24
2789.56
2666.09
2542.41
2435.05
2348.59
2267.26
2185.3
2110.74
2051.36
2014.49
1993.52
1970.7
1931.93
1860.78
1760.65
1659.52
1567.14
1496.38
1465.54
1467.48
1482.97
1502.75
1537.23
1643.74
1815.27
1856.73
1704.16
1444.32
1359.4
1319.25
1085.9
845.357
692.81
600.357
568.549
571.572
574.789
594.839
587.909
558.261
573.4
590.26
534.049
463.714
488.324
618.251
716.259
738.013
717.819
690.235
650.545
538.829
341.71
286.022
309.678
312.122
300.317
283.598
262.475
233.086
192.4
142.817
109.516
93.4935
76.7267
49.763
13.4689
-25.2746
-60.6725
-92.1938
-115.745
-117.925
-93.6423
-42.9561
31.1097
125.703
237.745
362.466
495.2
637.031
784.031
919.873
1024.73
1090.84
1129.66
1152.73
1161.6
1157.14
1144.41
1126.94
1115.49
1121.73
1133.65
1137.86
1137.78
1143.42
1157.54
1170.48
1168.69
1153.64
1077.5
969.509
929.99
934.547
928.066
913.42
884.701
853.752
822.464
797.665
789.303
792.829
792.63
793.317
797.095
799.115
790.969
766.657
751.637
750.21
757.452
770.723
783.173
793.778
804.939
810.553
800.389
774.665
730.792
661.67
555.519
402.158
232.278
61.3867
-120.615
-306.147
-487.449
-660.343
-829.425
-982.905
-1107.28
-1203.3
-1273.53
-1321.43
-1348.45
-1362.1
-1354.2
-1322.52
-1267.21
-1190.88
-1093.88
-971.207
-813.829
-644.083
-481.132
-321.744
-161.916
11.0748
196.961
371.944
523.204
642.278
731.712
798.614
853.004
903.843
953.176
999.082
1040.07
1065.05
1070.73
1065.86
1047.2
1009.8
955.206
870.469
739.825
590.441
496.1
473.805
475.507
467.015
484.109
536.724
585.215
618.393
647.186
695.114
754.047
767.667
398.393
2255.15
2587.39
3866.14
4061.75
3776.93
3644.93
3678.15
3725.61
3732.12
3719.21
3711.02
3710.26
3710.9
3709.86
3707.74
3705.67
3703.9
3702.19
3700.36
3698.42
3696.4
3694.32
3692.16
3689.88
3687.48
3684.95
3682.25
3679.38
3676.29
3672.96
3669.36
3665.44
3661.15
3656.44
3651.25
3645.52
3639.14
3632.04
3624.11
3615.23
3605.26
3594.05
3581.4
3567.13
3550.99
3532.72
3512
3488.47
3461.75
3431.36
3396.81
3357.54
3312.99
3262.62
3205.96
3142.71
3072.76
2996.5
2914.94
2830.44
2746.03
2662.48
2577.99
2490.67
2401.92
2317.58
2244.55
2186
2139.38
2097.56
2053.19
2001.78
1940.75
1869.69
1793.56
1721.04
1656.72
1602.67
1563.12
1538.31
1524.6
1520.26
1524.88
1517.28
1471.44
1380.67
1266.53
1173.77
1093.36
984.291
881.404
829.275
826.416
856.258
883.426
873.601
864.755
920.364
992.966
944.941
805.386
683.207
607.487
567.54
551.251
575.04
636.228
657.088
616.994
545.4
466.267
387.308
298.329
247.296
265.498
286.673
277.475
253.709
234.626
211.653
163.019
94.3192
50.2505
43.733
29.1717
-11.9681
-61.5709
-105.17
-140.453
-159.433
-152.456
-117.715
-60.3215
19.3284
118.361
231.238
351.965
474.939
594.193
707.14
816.218
918.158
999.571
1054.72
1088.81
1108.57
1118.1
1120.96
1121.08
1121.02
1120.27
1116.94
1114.34
1122.22
1146.11
1183.14
1222.23
1253.31
1252.41
1182.23
1078.29
1006.3
965.197
929.699
890.06
856.005
842.614
836.703
816.217
795.344
784.448
783.648
790.02
800.836
809.993
807.676
788.696
767.817
762.952
768.95
779.269
787.988
786.972
783.181
775.823
759.381
731.954
687.942
620.403
523.764
393.716
235.551
54.9281
-133.877
-315.72
-491.006
-671.019
-855.691
-1021.03
-1155.05
-1265.46
-1357.67
-1427.9
-1468.85
-1472.67
-1446.69
-1397.52
-1326.31
-1235.17
-1126.47
-1005.08
-865.428
-705.594
-539.869
-371.829
-204.569
-36.5551
131.702
288.338
427.772
548.93
651.342
737.512
811.772
876.603
927.349
964.763
993.271
1012.47
1021.87
1019.2
1008.77
988.514
956.427
908.95
846.812
773.266
698.842
637.098
585.739
538.976
501.605
471.613
450.241
435.478
411.335
373.592
313.237
219.355
69.3916
2254.51
2586.45
3865.59
4061.37
3776.45
3644.34
3677.5
3724.94
3731.41
3718.43
3710.16
3709.3
3709.84
3708.69
3706.43
3704.21
3702.27
3700.36
3698.32
3696.13
3693.84
3691.45
3688.94
3686.28
3683.46
3680.45
3677.23
3673.78
3670.06
3666.03
3661.66
3656.9
3651.7
3646
3639.73
3632.83
3625.21
3616.77
3607.42
3597.03
3585.48
3572.6
3558.25
3542.23
3524.33
3504.32
3481.95
3456.92
3428.93
3397.65
3362.71
3323.77
3280.49
3232.55
3179.75
3122.02
3059.51
2992.7
2922.36
2849.28
2773.85
2696.25
2617.26
2538.95
2463.89
2393.78
2328.94
2268.56
2211.06
2154.83
2098.48
2040.61
1980.1
1916.65
1851.86
1788.92
1730.41
1678.47
1635.07
1600.05
1570.91
1544.69
1519
1490.89
1455.45
1405.62
1340.62
1267.88
1196.45
1125.19
1052.35
985.274
927.984
876.647
827.966
784
750.923
727.696
702.069
665.996
624.4
588.882
564.106
554.816
568.775
604.908
632.752
628.7
595.814
548.754
492.61
427.149
364.381
329.89
318.242
305.237
281.05
250.772
222.058
193.939
159.866
121.752
92.0847
70.4009
46.3445
16.7035
-10.7333
-29.7677
-36.4691
-28.1768
-3.60442
37.7678
95.0729
166.634
249.45
339.883
434.456
530.133
624.52
715.59
800.344
874.077
932.683
976.045
1007.43
1030.16
1046.14
1056.84
1063.86
1068.87
1073.61
1079.36
1086.34
1093.87
1100.54
1105
1103.67
1093.88
1069.82
1031.65
989.276
954.444
928.868
908.098
890.116
875.214
860.405
842.58
823.83
809.763
802.571
801.719
807.74
821.581
839.831
855.575
863.93
851.431
830.553
818.441
809.39
793.229
770.781
752.886
740.175
721.422
683.882
631.96
568.474
481.462
361.18
213.395
48.9279
-122.241
-290.307
-455.91
-629.218
-804.065
-961.523
-1095.66
-1210.81
-1305.11
-1370.8
-1404.19
-1406.2
-1378.75
-1330.4
-1264.51
-1180.4
-1079.27
-963.409
-833.758
-691.634
-539.99
-381.586
-220.727
-60.5898
95.7295
242.715
378.291
501.158
607.866
697.755
771.159
829.292
874.607
909.878
935.843
952.353
958.807
955.009
941.329
918.6
886.053
843.848
792.05
731.952
669.439
613.094
566.188
526.82
493.662
464.703
436.132
403.649
363.269
312.826
251.005
166.31
71.1319
2253.99
2585.67
3865.13
4061.05
3776.05
3643.83
3676.95
3724.37
3730.79
3717.75
3709.41
3708.47
3708.92
3707.67
3705.3
3702.94
3700.85
3698.78
3696.55
3694.16
3691.64
3689
3686.2
3683.23
3680.06
3676.67
3673.03
3669.11
3664.87
3660.29
3655.31
3649.88
3643.96
3637.48
3630.37
3622.57
3613.98
3604.52
3594.09
3582.57
3569.83
3555.75
3540.15
3522.89
3503.78
3482.62
3459.2
3433.29
3404.66
3373.05
3338.22
3299.95
3258.01
3212.24
3162.54
3108.91
3051.46
2990.41
2926.09
2858.94
2789.61
2718.97
2648.04
2577.76
2508.7
2441.07
2375.01
2310.76
2248.47
2187.92
2128.52
2069.5
2010.33
1951
1892.17
1834.94
1780.51
1729.66
1682.64
1639.07
1598.06
1558.45
1519.03
1478.19
1433.23
1381.33
1322.35
1259.54
1196.87
1135.29
1074.54
1017.47
967.96
927.438
895.367
869.555
847.329
827.349
808.68
787.993
761.566
730.804
700.973
676.042
656.101
637.805
616.592
590.047
557.479
519.617
478.16
435.998
397.225
364.763
338.044
314.558
291.645
268.415
245.409
222.682
199.513
176.063
154.337
136.343
121.565
110.24
102.865
101.251
107.384
122.625
147.925
183.821
229.87
284.785
346.858
414.119
484.417
555.559
625.398
691.904
753.393
808.733
857.203
898.448
932.686
960.617
983.113
1001.09
1015.49
1027.19
1036.82
1044.57
1050.43
1054.66
1057.68
1059.19
1058.33
1053.62
1044.22
1028.88
1008.23
985.615
963.888
943.229
922.846
902.832
884.239
868.022
854.079
842.24
832.773
825.746
820.761
816.843
812.219
804.856
793.935
780.324
768.118
759.509
752.73
744.635
732.775
717.111
695.726
663.236
620.333
569.687
508.707
432.056
339.247
225.754
84.9186
-68.3676
-220.616
-373.242
-525.223
-673.685
-814.353
-940.227
-1046.24
-1133.41
-1201.44
-1246.08
-1262.9
-1255.35
-1221.26
-1167.7
-1095.42
-1005.56
-899.624
-778.263
-642.33
-497.363
-350.615
-204.528
-57.9323
86.9137
226.051
355.829
469.968
566.069
647.758
716.624
772.031
814.982
848.005
871.368
885.289
890.301
886.95
875.779
857.292
831.673
799.112
760.304
717.049
672.151
627.981
585.21
543.223
501.357
458.953
415.058
368.287
317.111
259.527
195.425
118.394
49.2194
2253.6
2585.08
3864.79
4060.81
3775.75
3643.45
3676.53
3723.94
3730.34
3717.25
3708.85
3707.86
3708.24
3706.91
3704.46
3702.01
3699.82
3697.63
3695.26
3692.72
3690.03
3687.2
3684.2
3681
3677.57
3673.9
3669.95
3665.69
3661.08
3656.09
3650.67
3644.76
3638.32
3631.28
3623.57
3615.12
3605.86
3595.67
3584.48
3572.17
3558.62
3543.7
3527.28
3509.2
3489.3
3467.42
3443.36
3416.95
3387.99
3356.3
3321.69
3283.99
3243.06
3198.81
3151.17
3100.18
3045.92
2988.58
2928.45
2865.95
2801.56
2735.81
2669.18
2602.13
2535.11
2468.63
2403.17
2339.07
2276.43
2215.09
2154.74
2095.1
2036.01
1977.55
1919.95
1863.64
1809.07
1756.58
1706.28
1658.07
1611.58
1566.13
1520.83
1474.7
1426.78
1376.46
1323.81
1269.7
1215.35
1161.77
1109.73
1060.2
1014.14
971.742
932.278
894.717
858.483
823.591
789.787
756.175
722.327
689.337
658.962
632.114
608.592
587.551
567.493
546.244
521.973
494.439
464.811
434.507
404.64
376.404
350.938
328.132
306.675
285.565
264.858
245.065
226.439
209.197
194.045
182
173.776
169.364
169.277
174.512
186.202
205.174
231.783
265.926
307.067
354.309
406.485
462.208
519.973
578.293
635.803
691.316
743.812
792.372
836.165
874.622
907.659
935.641
959.115
978.615
994.628
1007.6
1017.93
1025.96
1031.9
1035.84
1037.61
1036.79
1032.95
1025.75
1014.85
1000.54
983.378
964.969
946.577
928.604
911.159
894.492
878.819
864.065
850.083
837.164
825.75
816.015
807.824
800.88
794.686
788.557
781.692
773.294
763.068
751.205
737.405
720.457
699.248
673.746
643.447
606.783
563.189
511.298
448.038
373.555
291.181
197.239
84.6401
-41.3957
-170.382
-300.275
-430.584
-558.726
-679.099
-787.494
-887.119
-977.936
-1052.82
-1107.34
-1133.83
-1135.19
-1111.87
-1065.49
-998.685
-912.65
-810.084
-694.816
-569.529
-437.371
-302.229
-167.149
-32.3286
101.445
230.249
349.668
454.728
542.996
617.228
680.349
732.741
774.202
805.402
827.302
840.602
845.808
843.346
833.639
817.15
794.403
766.026
732.837
695.798
655.89
614.078
571.123
527.437
483.056
437.633
390.508
340.788
287.656
229.989
168.609
99.5659
40.3903
2253.37
2584.72
3864.57
4060.67
3775.57
3643.22
3676.27
3723.67
3730.05
3716.94
3708.51
3707.47
3707.82
3706.45
3703.94
3701.43
3699.17
3696.9
3694.45
3691.81
3689.02
3686.08
3682.95
3679.6
3676.02
3672.17
3668.03
3663.57
3658.74
3653.5
3647.8
3641.61
3634.85
3627.47
3619.41
3610.58
3600.9
3590.29
3578.65
3565.88
3551.85
3536.46
3519.56
3501.02
3480.68
3458.4
3434.01
3407.35
3378.26
3346.57
3312.13
3274.82
3234.53
3191.18
3144.76
3095.28
3042.84
2987.62
2929.83
2869.8
2807.86
2744.41
2679.88
2614.72
2549.4
2484.32
2419.81
2356.09
2293.25
2231.31
2170.26
2110.06
2050.72
1992.29
1934.91
1878.78
1824.09
1771
1719.53
1669.55
1620.75
1572.69
1524.83
1476.65
1427.73
1377.76
1326.67
1274.74
1222.61
1171.01
1120.56
1071.8
1025.22
981.216
939.956
901.414
865.461
831.908
800.493
770.898
742.796
715.964
690.306
665.688
641.757
617.94
593.494
567.735
540.364
511.611
482.071
452.457
423.5
395.914
370.178
346.287
323.922
302.895
283.32
265.461
249.554
235.85
224.726
216.677
212.209
211.317
215.4
224.704
239.501
260.113
286.64
318.901
356.46
398.637
444.541
493.129
543.279
593.855
643.767
692.013
737.729
780.258
819.123
854.068
885.06
912.234
935.807
956.021
973.12
987.345
998.912
1007.99
1014.65
1018.94
1020.84
1020.37
1017.46
1012.04
1004.11
993.504
980.816
966.5
951.078
935.031
918.724
902.476
886.638
871.637
857.302
844.233
832.331
821.404
811.207
801.402
791.534
781.142
769.819
757.326
743.627
728.684
712.129
693.216
671.129
645.243
614.847
578.856
536.238
486.142
427.605
359.945
282.675
194.718
95.6546
-11.8407
-123.77
-238.908
-356.616
-472.86
-582.534
-683.821
-776.803
-859.224
-925.452
-972.538
-1002.42
-1010.06
-994.975
-957.368
-899.993
-825.389
-735.698
-632.634
-518.643
-396.584
-269.164
-139.474
-10.9798
113.344
231.028
339.637
437.55
524.012
598.612
661.381
712.603
752.88
783.051
803.941
816.265
820.701
817.919
808.571
793.278
772.617
747.111
717.248
683.854
647.198
607.98
566.753
523.772
479.032
432.339
383.411
331.891
277.54
219.767
159.536
93.6932
37.087
2253.29
2584.61
3864.5
4060.62
3775.51
3643.15
3676.19
3723.58
3729.96
3716.84
3708.4
3707.35
3707.68
3706.29
3703.77
3701.24
3698.96
3696.67
3694.19
3691.52
3688.69
3685.71
3682.54
3679.15
3675.52
3671.61
3667.41
3662.88
3657.97
3652.65
3646.87
3640.57
3633.71
3626.22
3618.04
3609.08
3599.27
3588.52
3576.73
3563.81
3549.63
3534.07
3517.02
3498.33
3477.85
3455.45
3430.95
3404.22
3375.08
3343.4
3309.03
3271.86
3231.78
3188.74
3142.71
3093.73
3041.89
2987.33
2930.27
2871
2809.85
2747.2
2683.46
2619.07
2554.39
2489.79
2425.53
2361.87
2298.95
2236.9
2175.75
2115.53
2056.25
1997.95
1940.73
1884.71
1830.03
1776.74
1724.82
1674.13
1624.4
1575.27
1526.35
1477.24
1427.58
1377.17
1326.02
1274.42
1222.94
1172.23
1122.85
1075.29
1029.91
986.938
946.324
907.804
870.992
835.5
800.947
767.025
733.754
701.541
671.021
642.55
615.595
589.526
563.683
537.677
511.274
484.44
457.41
430.619
404.567
379.689
356.275
334.452
314.23
295.517
278.302
262.73
249.036
237.504
228.502
222.566
220.239
222.697
229.293
240.548
256.945
278.655
305.667
337.8
374.646
415.567
459.745
506.236
554.027
602.103
649.509
695.379
738.857
779.603
817.263
851.576
882.422
909.805
933.805
954.535
972.099
986.594
998.13
1006.86
1012.95
1016.57
1017.82
1016.74
1013.26
1007.35
999
988.293
975.445
960.81
944.888
928.218
911.283
894.507
878.232
862.581
848.096
834.402
821.692
810.032
799.263
789.309
779.596
769.798
759.567
748.523
736.286
722.463
706.603
688.14
666.425
640.825
610.724
575.468
534.426
486.997
432.492
370.295
300.044
221.311
133.579
37.233
-65.5799
-172.94
-283.346
-394.914
-504.894
-610.39
-708.769
-797.222
-872.821
-931.137
-970.204
-988.167
-984.056
-957.718
-909.785
-841.654
-755.589
-653.701
-539.669
-416.379
-287.174
-155.709
-25.3025
101.392
221.764
333.186
433.67
522.052
597.94
661.513
713.249
753.8
783.953
804.595
816.613
820.845
818.062
808.945
794.096
774.055
749.325
720.408
687.508
651.401
612.444
570.933
527.096
481.063
432.858
382.419
329.572
274.228
215.933
155.772
90.7048
35.8277
2253.38
2584.74
3864.58
4060.67
3775.58
3643.24
3676.29
3723.68
3730.07
3716.96
3708.52
3707.49
3707.84
3706.46
3703.96
3701.45
3699.19
3696.92
3694.47
3691.83
3689.04
3686.1
3682.97
3679.63
3676.05
3672.2
3668.06
3663.6
3658.77
3653.53
3647.84
3641.64
3634.89
3627.51
3619.44
3610.61
3600.94
3590.33
3578.69
3565.92
3551.9
3536.5
3519.6
3501.06
3480.73
3458.44
3434.05
3407.39
3378.3
3346.61
3312.17
3274.87
3234.58
3191.24
3144.82
3095.36
3042.94
2987.74
2929.99
2870
2808.11
2744.73
2680.27
2615.19
2549.95
2484.95
2420.52
2356.87
2294.09
2232.21
2171.2
2111.04
2051.73
1993.33
1935.97
1879.86
1825.18
1772.08
1720.57
1670.47
1621.47
1573.09
1524.79
1476.05
1426.46
1375.76
1323.94
1271.37
1218.75
1166.85
1116.32
1067.64
1021.22
977.322
936.028
897.277
860.975
827.039
795.349
765.691
737.738
711.136
685.466
660.287
635.43
610.342
584.496
557.49
529.339
500.411
471.286
442.698
415.389
389.79
365.862
343.294
322.629
303.828
286.708
271.282
257.747
246.348
237.387
231.332
228.788
230.366
236.437
247.357
263.437
284.925
311.905
344.19
381.305
422.552
467.068
513.829
561.697
609.521
656.265
701.124
743.686
783.41
820.068
853.577
883.911
911.113
935.272
956.482
974.792
990.241
1002.83
1012.52
1019.31
1023.29
1024.7
1023.62
1020.03
1013.85
1005.08
993.757
980.041
964.233
946.74
928.038
908.773
889.889
872.305
856.33
841.684
828.031
815.33
803.48
792.173
780.908
769.794
758.817
747.985
737.09
725.678
713.233
699.212
682.893
663.457
640.225
612.603
579.976
541.794
497.496
446.307
387.338
319.864
243.36
157.276
61.6046
-42.5344
-152.622
-266.968
-384.521
-502.893
-618.397
-727.429
-826.173
-910.394
-976.526
-1022.2
-1045.36
-1045.09
-1022.03
-977.057
-911.165
-825.2
-722.364
-605.216
-476.966
-341.087
-201.015
-60.7817
75.7143
205.003
324.437
432.278
527.435
609.253
677.523
732.52
775.037
806.158
827.03
838.769
842.415
838.893
828.992
813.369
792.559
766.999
737.081
703.205
665.809
625.318
582.153
536.688
489.183
439.724
388.268
334.657
278.786
220.06
159.408
93.2265
37.4545
2253.63
2585.13
3864.81
4060.83
3775.77
3643.48
3676.56
3723.96
3730.36
3717.28
3708.88
3707.89
3708.28
3706.95
3704.5
3702.05
3699.85
3697.66
3695.3
3692.76
3690.07
3687.25
3684.25
3681.05
3677.63
3673.95
3670.01
3665.75
3661.15
3656.16
3650.73
3644.83
3638.39
3631.35
3623.65
3615.2
3605.94
3595.76
3584.56
3572.25
3558.7
3543.79
3527.37
3509.28
3489.39
3467.5
3443.44
3417.03
3388.07
3356.37
3321.76
3284.07
3243.15
3198.9
3151.29
3100.32
3046.09
2988.8
2928.75
2866.34
2802.06
2736.44
2669.96
2603.07
2536.23
2469.93
2404.63
2340.68
2278.16
2216.92
2156.65
2097.07
2038.05
1979.65
1922.14
1865.92
1811.43
1758.98
1708.65
1660.28
1613.43
1567.37
1521.17
1473.8
1424.29
1372.12
1317.58
1261.87
1206.54
1152.8
1101.4
1052.93
1007.65
965.181
924.615
884.929
845.609
806.679
768.297
730.894
695.662
664.126
637.174
614.732
595.538
577.011
556.443
532.491
505.482
476.429
446.309
416.394
388.432
363.671
341.893
322.072
302.934
284.788
268.163
252.887
238.893
226.189
215.214
207.042
203.034
204.104
210.307
221.254
237.057
258.462
286.142
320.202
360.222
405.47
454.971
507.484
561.528
615.443
667.542
716.466
761.513
802.571
839.828
873.496
903.751
930.767
954.715
975.633