/*--------------------------------*- C++ -*----------------------------------*\
| =========                 |                                                 |
| \\      /  F ield         | OpenFOAM: The Open Source CFD Toolbox           |
|  \\    /   O peration     | Version:  2406                                  |
|   \\  /    A nd           | Website:  www.openfoam.com                      |
|    \\/     M anipulation  |                                                 |
\*---------------------------------------------------------------------------*/
FoamFile
{
    version     2.0;
    format      ascii;
    arch        "LSB;label=32;scalar=64";
    class       surfaceScalarField;
    location    "0.2";
    object      phi;
}
// * * * * * * * * * * * * * * * * * * * * * * * * * * * * * * * * * * * * * //

dimensions      [0 3 -1 0 0 0 0];

oriented        oriented;

internalField   nonuniform List<scalar> 
12225
(
2.56446e-05
1.04272e-08
2.56154e-05
2.92759e-08
2.55861e-05
2.92985e-08
2.55622e-05
2.38451e-08
2.5536e-05
2.62723e-08
2.55044e-05
3.15778e-08
2.5469e-05
3.53382e-08
2.54315e-05
3.74923e-08
2.53919e-05
3.96526e-08
2.53494e-05
4.25154e-08
2.53036e-05
4.58192e-08
2.52542e-05
4.93211e-08
2.52012e-05
5.30804e-08
2.51439e-05
5.72662e-08
2.50819e-05
6.1996e-08
2.50146e-05
6.73408e-08
2.49412e-05
7.33793e-08
2.4861e-05
8.02199e-08
2.4773e-05
8.79937e-08
2.46761e-05
9.68474e-08
2.45692e-05
1.06946e-07
2.44507e-05
1.18476e-07
2.4319e-05
1.31656e-07
2.41723e-05
1.46731e-07
2.40083e-05
1.63984e-07
2.38246e-05
1.83734e-07
2.36182e-05
2.06342e-07
2.3386e-05
2.32215e-07
2.31242e-05
2.61801e-07
2.28286e-05
2.95598e-07
2.24945e-05
3.34142e-07
2.21165e-05
3.78003e-07
2.16887e-05
4.27765e-07
2.12047e-05
4.84007e-07
2.06575e-05
5.4726e-07
2.00395e-05
6.17951e-07
1.93432e-05
6.96325e-07
1.85608e-05
7.82366e-07
1.76851e-05
8.75707e-07
1.67096e-05
9.75484e-07
1.56295e-05
1.08015e-06
1.44422e-05
1.1873e-06
1.31485e-05
1.2937e-06
1.17525e-05
1.39599e-06
1.02634e-05
1.48907e-06
8.69678e-06
1.56661e-06
7.07552e-06
1.62126e-06
5.43128e-06
1.64425e-06
3.80314e-06
1.62814e-06
2.25429e-06
1.54885e-06
8.37913e-07
1.41637e-06
2.73709e-07
5.64205e-07
8.92552e-07
-6.18843e-07
1.62849e-06
-7.35934e-07
7.1169e-07
9.16796e-07
4.17177e-07
2.94513e-07
3.20638e-07
9.65385e-08
2.51268e-07
6.93701e-08
2.11106e-07
4.01628e-08
1.99535e-07
1.15703e-08
1.97057e-07
2.47869e-09
1.90094e-07
6.96238e-09
1.78036e-07
1.20582e-08
1.68203e-07
9.83296e-09
1.63719e-07
4.48358e-09
1.63591e-07
1.28347e-10
1.64149e-07
-5.57726e-10
1.62685e-07
1.4639e-09
1.57982e-07
4.70308e-09
1.49974e-07
8.00785e-09
1.39944e-07
1.00299e-08
1.30103e-07
9.8407e-09
1.22451e-07
7.65254e-09
1.17667e-07
4.78411e-09
1.15562e-07
2.10469e-09
1.1585e-07
-2.88227e-10
1.17925e-07
-2.0747e-09
1.20292e-07
-2.3672e-09
1.21305e-07
-1.01294e-09
1.2001e-07
1.29507e-09
1.15722e-07
4.28795e-09
1.08442e-07
7.27996e-09
9.88655e-08
9.57667e-09
8.84153e-08
1.04502e-08
7.96149e-08
8.80043e-09
7.48013e-08
4.81362e-09
7.35768e-08
1.22448e-09
7.35759e-08
9.37616e-13
7.3364e-08
2.1189e-10
7.31857e-08
1.78311e-10
7.30013e-08
1.84418e-10
7.21196e-08
8.81618e-10
7.00057e-08
2.11395e-09
6.67241e-08
3.2816e-09
6.27643e-08
3.9598e-09
5.84854e-08
4.27894e-09
5.40538e-08
4.43152e-09
4.95131e-08
4.54072e-09
4.49632e-08
4.54995e-09
4.07188e-08
4.24432e-09
3.70672e-08
3.65168e-09
3.40996e-08
2.96756e-09
3.17419e-08
2.35771e-09
2.978e-08
1.9619e-09
2.79765e-08
1.80344e-09
2.6065e-08
1.91151e-09
2.38891e-08
2.17597e-09
2.1561e-08
2.32808e-09
1.97904e-08
1.77063e-09
1.90367e-08
7.53686e-10
1.92273e-08
-1.90678e-10
2.00374e-08
-8.10028e-10
2.12177e-08
-1.18029e-09
2.25584e-08
-1.34078e-09
2.37748e-08
-1.21637e-09
2.45922e-08
-8.17365e-10
2.48359e-08
-2.43696e-10
2.43988e-08
4.37065e-10
2.32706e-08
1.12826e-09
2.1569e-08
1.70158e-09
1.95761e-08
1.99286e-09
1.76154e-08
1.96073e-09
1.58637e-08
1.75172e-09
1.42974e-08
1.56622e-09
1.28136e-08
1.48381e-09
1.13341e-08
1.4795e-09
9.83276e-09
1.50139e-09
8.32768e-09
1.50508e-09
6.85961e-09
1.46807e-09
5.47198e-09
1.38764e-09
4.20482e-09
1.26716e-09
3.09638e-09
1.10844e-09
2.18281e-09
9.13566e-10
1.49578e-09
6.87034e-10
1.06692e-09
4.28862e-10
9.20237e-10
1.46684e-10
1.12398e-09
-2.0374e-10
1.66978e-09
-5.45801e-10
2.47474e-09
-8.04965e-10
3.46618e-09
-9.91435e-10
4.61305e-09
-1.14687e-09
5.90621e-09
-1.29316e-09
7.32312e-09
-1.41691e-09
8.81302e-09
-1.48989e-09
1.03066e-08
-1.49362e-09
1.17397e-08
-1.43302e-09
1.30674e-08
-1.32774e-09
1.42666e-08
-1.19923e-09
1.53208e-08
-1.05413e-09
1.62146e-08
-8.93855e-10
1.69093e-08
-6.94732e-10
1.73529e-08
-4.43591e-10
1.75322e-08
-1.7922e-10
1.75034e-08
2.87664e-11
1.73395e-08
1.63859e-10
1.70972e-08
2.42375e-10
1.67801e-08
3.17006e-10
1.63558e-08
4.2431e-10
1.58106e-08
5.45252e-10
1.5185e-08
6.25577e-10
1.45456e-08
6.39444e-10
1.39206e-08
6.24918e-10
1.32994e-08
6.21235e-10
1.26379e-08
6.61496e-10
1.18673e-08
7.70609e-10
1.09359e-08
9.31405e-10
9.79394e-09
1.14196e-09
8.45477e-09
1.33917e-09
6.99176e-09
1.46301e-09
5.47406e-09
1.51771e-09
3.97518e-09
1.49887e-09
2.58961e-09
1.38557e-09
1.42093e-09
1.16869e-09
5.41546e-10
8.79378e-10
-5.18213e-11
5.93366e-10
-4.71319e-10
4.19495e-10
-9.17555e-10
4.46235e-10
-1.58574e-09
6.68188e-10
-2.58526e-09
9.9952e-10
-3.77913e-09
1.19387e-09
-4.77781e-09
9.98673e-10
-5.30971e-09
5.31907e-10
-5.30939e-09
-3.1959e-13
-5.04447e-09
-2.64926e-10
-4.68807e-09
-3.56394e-10
-4.38693e-09
-3.01145e-10
-4.20385e-09
-1.83075e-10
-4.05188e-09
-1.51979e-10
-3.8707e-09
-1.81177e-10
-3.79818e-09
-7.25204e-11
-3.95148e-09
1.53302e-10
-4.43881e-09
4.87327e-10
-5.39108e-09
9.52274e-10
-6.78308e-09
1.392e-09
-8.3901e-09
1.60702e-09
-9.87518e-09
1.48508e-09
-1.09953e-08
1.1201e-09
-1.17543e-08
7.59022e-10
-1.23183e-08
5.63983e-10
-1.2803e-08
4.84702e-10
-1.31435e-08
3.40532e-10
-1.31061e-08
-3.74355e-11
-1.23556e-08
-7.50515e-10
-1.06529e-08
-1.70263e-09
-7.92951e-09
-2.72343e-09
-4.20583e-09
-3.72367e-09
4.10808e-10
-4.61664e-09
5.71754e-09
-5.30674e-09
1.1443e-08
-5.72546e-09
1.72263e-08
-5.78327e-09
2.26618e-08
-5.43554e-09
2.73373e-08
-4.6755e-09
3.08503e-08
-3.51302e-09
3.28716e-08
-2.02127e-09
3.32972e-08
-4.25583e-10
3.18807e-08
1.41648e-09
3.12874e-08
5.93317e-10
3.39643e-08
-2.67697e-09
4.21237e-08
-8.15933e-09
5.4454e-08
-1.23303e-08
6.73703e-08
-1.29163e-08
7.77932e-08
-1.04229e-08
8.44528e-08
-6.65954e-09
8.81518e-08
-3.69901e-09
9.0359e-08
-2.20724e-09
9.2036e-08
-1.677e-09
9.42387e-08
-2.20266e-09
9.77654e-08
-3.52669e-09
1.02712e-07
-4.94664e-09
1.08385e-07
-5.67331e-09
1.13686e-07
-5.30019e-09
1.1757e-07
-3.88447e-09
1.19554e-07
-1.98434e-09
1.19976e-07
-4.21971e-10
1.20577e-07
-6.00366e-10
1.24367e-07
-3.79043e-09
1.33084e-07
-8.71664e-09
1.4506e-07
-1.19762e-08
1.56671e-07
-1.16114e-08
1.65106e-07
-8.43425e-09
1.70116e-07
-5.01033e-09
1.72905e-07
-2.78943e-09
1.74593e-07
-1.68754e-09
1.75522e-07
-9.29128e-10
1.75311e-07
2.11347e-10
1.7322e-07
2.09061e-09
1.68559e-07
4.66083e-09
1.60993e-07
7.56597e-09
1.5081e-07
1.01832e-08
1.18522e-08
2.57019e-05
3.16093e-10
2.57253e-05
5.92269e-09
2.57431e-05
1.14654e-08
2.57515e-05
1.55231e-08
2.57617e-05
1.60021e-08
2.57761e-05
1.71557e-08
2.57919e-05
1.96295e-08
2.5807e-05
2.23895e-08
2.58217e-05
2.49358e-08
2.58367e-05
2.74765e-08
2.58522e-05
3.0304e-08
2.58681e-05
3.34936e-08
2.58841e-05
3.70339e-08
2.59004e-05
4.09632e-08
2.5917e-05
4.53705e-08
2.5934e-05
5.03544e-08
2.59514e-05
5.60126e-08
2.59692e-05
6.24531e-08
2.59873e-05
6.98043e-08
2.6006e-05
7.8218e-08
2.6025e-05
8.78715e-08
2.60445e-05
9.89719e-08
2.60644e-05
1.11763e-07
2.60846e-05
1.26531e-07
2.6105e-05
1.43618e-07
2.61253e-05
1.63426e-07
2.61452e-05
1.8643e-07
2.61642e-05
2.13194e-07
2.61817e-05
2.44384e-07
2.61965e-05
2.80783e-07
2.62073e-05
3.23311e-07
2.62123e-05
3.73037e-07
2.62088e-05
4.31198e-07
2.61936e-05
4.99204e-07
2.61623e-05
5.78642e-07
2.6109e-05
6.71259e-07
2.60265e-05
7.78785e-07
2.59061e-05
9.02751e-07
2.57372e-05
1.04466e-06
2.5507e-05
1.20565e-06
2.52009e-05
1.38625e-06
2.48021e-05
1.58611e-06
2.42921e-05
1.80369e-06
2.36523e-05
2.03582e-06
2.28641e-05
2.27725e-06
2.19106e-05
2.5201e-06
2.07781e-05
2.75374e-06
1.94589e-05
2.96344e-06
1.79559e-05
3.13121e-06
1.62752e-05
3.22948e-06
1.44583e-05
3.23329e-06
1.18921e-05
3.13042e-06
8.24993e-06
3.02333e-06
4.5914e-06
2.9226e-06
2.13662e-06
3.37158e-06
1.30297e-06
1.12817e-06
9.69851e-07
4.29653e-07
7.45922e-07
2.93299e-07
6.39088e-07
1.46997e-07
6.02537e-07
4.81206e-08
5.76473e-07
2.85425e-08
5.28781e-07
5.46551e-08
4.81285e-07
5.95539e-08
4.49663e-07
4.14552e-08
4.33693e-07
2.04538e-08
4.25903e-07
7.91822e-09
4.20218e-07
5.12666e-09
4.12728e-07
8.95413e-09
4.00586e-07
1.68453e-08
3.83394e-07
2.51997e-08
3.63646e-07
2.97775e-08
3.45084e-07
2.84025e-08
3.31112e-07
2.16255e-08
3.22521e-07
1.33748e-08
3.17838e-07
6.78777e-09
3.16839e-07
7.1073e-10
3.19229e-07
-4.46523e-09
3.2246e-07
-5.59808e-09
3.22903e-07
-1.45619e-09
3.18755e-07
5.44318e-09
3.09735e-07
1.33087e-08
2.94376e-07
2.26384e-08
2.74591e-07
2.93622e-08
2.52301e-07
3.27397e-08
2.31924e-07
2.91778e-08
2.207e-07
1.6037e-08
2.18082e-07
3.84287e-09
2.16959e-07
1.12424e-09
2.13703e-07
3.46792e-09
2.09099e-07
4.78224e-09
2.03363e-07
5.92036e-09
1.95808e-07
8.43665e-09
1.85726e-07
1.21957e-08
1.73145e-07
1.58622e-08
1.59485e-07
1.76205e-08
1.45831e-07
1.79329e-08
1.3257e-07
1.76925e-08
1.19579e-07
1.75312e-08
1.07033e-07
1.70963e-08
9.59745e-08
1.53028e-08
8.72287e-08
1.23974e-08
8.05816e-08
9.61468e-09
7.55393e-08
7.39998e-09
7.18153e-08
5.68594e-09
6.90004e-08
4.61835e-09
6.63966e-08
4.51532e-09
6.32384e-08
5.3341e-09
5.97471e-08
5.81938e-09
5.72103e-08
4.30748e-09
5.64475e-08
1.51651e-09
5.71079e-08
-8.51131e-10
5.85804e-08
-2.28252e-09
6.04052e-08
-3.00506e-09
6.2466e-08
-3.40163e-09
6.42275e-08
-2.97788e-09
6.51717e-08
-1.76154e-09
6.50348e-08
-1.06792e-10
6.3883e-08
1.58891e-09
6.16077e-08
3.40349e-09
5.83658e-08
4.94352e-09
5.4647e-08
5.71169e-09
5.10916e-08
5.51607e-09
4.79654e-08
4.87797e-09
4.51067e-08
4.42489e-09
4.22978e-08
4.29274e-09
3.94129e-08
4.36432e-09
3.64253e-08
4.48902e-09
3.34058e-08
4.52456e-09
3.04663e-08
4.40764e-09
2.77063e-08
4.14764e-09
2.52144e-08
3.75903e-09
2.30784e-08
3.24445e-09
2.13691e-08
2.6228e-09
2.01196e-08
1.93658e-09
1.94214e-08
1.12707e-09
1.95163e-08
5.1731e-11
2.01282e-08
-8.15631e-10
2.12339e-08
-1.65145e-09
2.27475e-08
-2.31854e-09
2.45552e-08
-2.79915e-09
2.65777e-08
-3.16941e-09
2.87784e-08
-3.49385e-09
3.10958e-08
-3.73429e-09
3.34377e-08
-3.83182e-09
3.56777e-08
-3.73362e-09
3.76821e-08
-3.43743e-09
3.93586e-08
-3.00419e-09
4.06985e-08
-2.53916e-09
4.17501e-08
-2.10576e-09
4.25382e-08
-1.68188e-09
4.29919e-08
-1.14851e-09
4.2921e-08
-3.72638e-10
4.24542e-08
2.87524e-10
4.16826e-08
8.00391e-10
4.06726e-08
1.17387e-09
3.95208e-08
1.39419e-09
3.821e-08
1.62784e-09
3.668e-08
1.95424e-09
3.48224e-08
2.40293e-09
3.26716e-08
2.77631e-09
3.03835e-08
2.92753e-09
2.80794e-08
2.92904e-09
2.5761e-08
2.93968e-09
2.33214e-08
3.10102e-09
2.06121e-08
3.47991e-09
1.74619e-08
4.08164e-09
1.37089e-08
4.89495e-09
9.45653e-09
5.59155e-09
5.00308e-09
5.91647e-09
5.10698e-10
6.01009e-09
-3.91116e-09
5.92073e-09
-8.10033e-09
5.57474e-09
-1.18285e-08
4.89691e-09
-1.48985e-08
3.94938e-09
-1.72539e-08
2.9487e-09
-1.90476e-08
2.21325e-09
-2.05892e-08
1.98776e-09
-2.21139e-08
2.19293e-09
-2.39421e-08
2.82775e-09
-2.60461e-08
3.29786e-09
-2.75643e-08
2.51686e-09
-2.81016e-08
1.06919e-09
-2.81312e-08
2.93168e-11
-2.77017e-08
-6.94459e-10
-2.73359e-08
-7.22224e-10
-2.76009e-08
-3.61019e-11
-2.87204e-08
9.36426e-10
-3.04853e-08
1.61294e-09
-3.15741e-08
9.07625e-10
-3.18013e-08
1.54582e-10
-3.19438e-08
2.95816e-10
-3.29246e-08
1.46819e-09
-3.49909e-08
3.01856e-09
-3.74449e-08
3.84603e-09
-3.96473e-08
3.80938e-09
-4.0967e-08
2.80473e-09
-4.01531e-08
3.06276e-10
-3.76613e-08
-1.73277e-09
-3.38729e-08
-3.22443e-09
-2.92482e-08
-4.14e-09
-2.39082e-08
-4.99945e-09
-1.78802e-08
-6.06549e-09
-1.11213e-08
-7.50942e-09
-3.57809e-09
-9.24582e-09
4.82448e-09
-1.1126e-08
1.43317e-08
-1.32309e-08
2.52939e-08
-1.55788e-08
3.78189e-08
-1.78318e-08
5.17e-08
-1.96066e-08
6.62904e-08
-2.03736e-08
8.09419e-08
-2.00871e-08
9.49536e-08
-1.86872e-08
1.07162e-07
-1.57211e-08
1.16347e-07
-1.12065e-08
1.21301e-07
-5.37931e-09
1.21201e-07
1.51591e-09
1.21048e-07
7.47013e-10
1.28007e-07
-9.63647e-09
1.43717e-07
-2.38697e-08
1.65821e-07
-3.44343e-08
1.88844e-07
-3.59391e-08
2.0792e-07
-2.9499e-08
2.21165e-07
-1.9904e-08
2.30719e-07
-1.32535e-08
2.3902e-07
-1.05082e-08
2.4604e-07
-8.69672e-09
2.546e-07
-1.07627e-08
2.67056e-07
-1.59825e-08
2.83005e-07
-2.08956e-08
3.00286e-07
-2.29542e-08
3.16529e-07
-2.15438e-08
3.29567e-07
-1.6922e-08
3.38227e-07
-1.06447e-08
3.42449e-07
-4.64374e-09
3.43364e-07
-1.516e-09
3.49963e-07
-1.03891e-08
3.68773e-07
-2.75266e-08
3.95622e-07
-3.8825e-08
4.21754e-07
-3.77434e-08
4.40129e-07
-2.68097e-08
4.50653e-07
-1.55342e-08
4.57053e-07
-9.18946e-09
4.62313e-07
-6.94771e-09
4.67051e-07
-5.66651e-09
4.70228e-07
-2.96573e-09
4.69928e-07
2.39061e-09
4.64438e-07
1.01511e-08
4.52779e-07
1.92248e-08
4.35973e-07
2.69894e-08
3.08278e-08
2.56854e-05
2.48723e-09
2.5683e-05
8.35317e-09
2.56831e-05
1.13479e-08
2.56853e-05
1.331e-08
2.56856e-05
1.57676e-08
2.5684e-05
1.8752e-08
2.56818e-05
2.18304e-08
2.56793e-05
2.49028e-08
2.56761e-05
2.80918e-08
2.56721e-05
3.15198e-08
2.56671e-05
3.52786e-08
2.56612e-05
3.94247e-08
2.56542e-05
4.40092e-08
2.56461e-05
4.91016e-08
2.56366e-05
5.47901e-08
2.56258e-05
6.11741e-08
2.56135e-05
6.83614e-08
2.55994e-05
7.64721e-08
2.55836e-05
8.56427e-08
2.55658e-05
9.60284e-08
2.55459e-05
1.07806e-07
2.55237e-05
1.21177e-07
2.54991e-05
1.3637e-07
2.54719e-05
1.53649e-07
2.54422e-05
1.73314e-07
2.541e-05
1.95708e-07
2.53752e-05
2.21226e-07
2.5338e-05
2.50318e-07
2.52989e-05
2.83503e-07
2.52583e-05
3.21373e-07
2.5217e-05
3.64612e-07
2.51761e-05
4.14007e-07
2.51368e-05
4.70463e-07
2.5101e-05
5.35026e-07
2.50707e-05
6.08899e-07
2.50485e-05
6.93469e-07
2.50369e-05
7.90368e-07
2.50382e-05
9.01451e-07
2.5054e-05
1.02883e-06
2.50848e-05
1.17486e-06
2.5129e-05
1.34206e-06
2.51822e-05
1.53297e-06
2.52359e-05
1.74998e-06
2.52767e-05
1.99501e-06
2.52848e-05
2.26914e-06
2.52327e-05
2.57219e-06
2.5084e-05
2.90241e-06
2.47912e-05
3.25629e-06
2.42936e-05
3.62878e-06
2.3505e-05
4.01804e-06
2.23199e-05
4.4184e-06
2.06009e-05
4.84943e-06
1.82675e-05
5.35679e-06
1.53046e-05
5.88546e-06
1.17157e-05
6.96047e-06
7.37603e-06
5.46784e-06
3.52214e-06
4.28355e-06
1.71043e-06
2.10501e-06
1.41241e-06
4.45012e-07
1.24118e-06
2.19351e-07
1.00984e-06
2.59883e-07
7.94167e-07
2.7033e-07
6.93881e-07
1.5984e-07
6.53231e-07
8.21056e-08
6.35117e-07
3.85674e-08
6.24109e-07
1.89265e-08
6.1193e-07
1.73054e-08
5.97293e-07
2.3591e-08
5.78656e-07
3.54822e-08
5.59682e-07
4.41741e-08
5.33686e-07
5.57737e-08
5.09965e-07
5.21231e-08
4.97299e-07
3.42914e-08
4.94492e-07
1.61822e-08
4.93554e-07
7.72609e-09
4.93395e-07
8.69724e-10
4.95956e-07
-7.02689e-09
4.99925e-07
-9.56696e-09
5.02367e-07
-3.89816e-09
5.01177e-07
6.6334e-09
4.95713e-07
1.87724e-08
4.80877e-07
3.7475e-08
4.58807e-07
5.14318e-08
4.15566e-07
7.59806e-08
3.75254e-07
6.94894e-08
3.61479e-07
2.98121e-08
3.7589e-07
-1.05677e-08
3.82527e-07
-5.51275e-09
3.7476e-07
1.12345e-08
3.65321e-07
1.42217e-08
3.5812e-07
1.3121e-08
3.478e-07
1.87564e-08
3.28692e-07
3.13042e-08
3.05133e-07
3.94215e-08
2.78927e-07
4.38261e-08
2.48053e-07
4.88071e-08
2.15575e-07
5.01701e-08
1.83764e-07
4.93423e-08
1.53119e-07
4.77413e-08
1.30372e-07
3.80499e-08
1.16612e-07
2.61578e-08
1.08239e-07
1.79871e-08
1.04665e-07
1.09746e-08
1.03987e-07
6.36338e-09
1.05008e-07
3.59751e-09
1.08489e-07
1.03451e-09
1.09064e-07
4.75931e-09
1.00798e-07
1.40846e-08
9.58228e-08
9.28309e-09
9.60696e-08
1.26968e-09
9.83229e-08
-3.10441e-09
9.92113e-08
-3.17089e-09
9.92084e-08
-3.00217e-09
9.97378e-08
-3.93109e-09
9.99579e-08
-3.19791e-09
9.88033e-08
-6.06972e-10
9.678e-08
1.91649e-09
9.37998e-08
4.56915e-09
8.97737e-08
7.4296e-09
8.46548e-08
1.00624e-08
7.92272e-08
1.11393e-08
7.45356e-08
1.02077e-08
7.07064e-08
8.70712e-09
6.69294e-08
8.20187e-09
6.28208e-08
8.4014e-09
5.8377e-08
8.80807e-09
5.36407e-08
9.22535e-09
4.88953e-08
9.26997e-09
4.44812e-08
8.82176e-09
4.0583e-08
8.04578e-09
3.72963e-08
7.04579e-09
3.47523e-08
5.7884e-09
3.30413e-08
4.33381e-09
3.21051e-08
2.87278e-09
3.17427e-08
1.48947e-09
3.18933e-08
-9.8801e-11
3.32033e-08
-2.12572e-09
3.58943e-08
-4.34238e-09
3.97759e-08
-6.20016e-09
4.40351e-08
-7.05833e-09
4.8034e-08
-7.16836e-09
5.19188e-08
-7.37861e-09
5.58481e-08
-7.66365e-09
5.97744e-08
-7.75805e-09
6.33505e-08
-7.30974e-09
6.61837e-08
-6.27067e-09
6.79912e-08
-4.8117e-09
6.88717e-08
-3.41963e-09
6.94951e-08
-2.72914e-09
7.01773e-08
-2.36405e-09
7.0938e-08
-1.90924e-09
7.1235e-08
-6.69616e-10
7.01505e-08
1.372e-09
6.80761e-08
2.87478e-09
6.57635e-08
3.48643e-09
6.37443e-08
3.41338e-09
6.20968e-08
3.27535e-09
6.02081e-08
3.84299e-09
5.72485e-08
5.36255e-09
5.33192e-08
6.70553e-09
4.91338e-08
7.11297e-09
4.5199e-08
6.86383e-09
4.18775e-08
6.26117e-09
3.88767e-08
6.10187e-09
3.53589e-08
6.99768e-09
3.06436e-08
8.79688e-09
2.40659e-08
1.14727e-08
1.63264e-08
1.33311e-08
8.71207e-09
1.35308e-08
1.29026e-09
1.34319e-08
-6.02326e-09
1.32342e-08
-1.32382e-08
1.27897e-08
-1.98097e-08
1.14684e-08
-2.51775e-08
9.31721e-09
-2.90694e-08
6.84063e-09
-3.18057e-08
4.94956e-09
-3.48824e-08
5.06441e-09
-3.72029e-08
4.51349e-09
-3.60508e-08
1.67562e-09
-3.16201e-08
-1.13287e-09
-2.48141e-08
-4.28911e-09
-1.89859e-08
-4.75898e-09
-1.48706e-08
-4.08602e-09
-1.0034e-08
-5.53106e-09
-4.5192e-09
-6.23698e-09
1.04201e-09
-5.59731e-09
5.38432e-09
-3.40588e-09
6.31427e-09
6.82985e-10
9.57721e-12
7.21233e-09
-1.69049e-08
1.7069e-08
-3.65062e-08
1.98971e-08
-5.02771e-08
1.52391e-08
-6.08828e-08
1.36242e-08
-7.20979e-08
1.50611e-08
-8.56455e-08
1.73571e-08
-9.98865e-08
1.70457e-08
-1.12595e-07
1.3015e-08
-1.18665e-07
4.33708e-09
-1.16063e-07
-5.82604e-09
-1.0583e-07
-1.43731e-08
-8.83577e-08
-2.24721e-08
-6.9165e-08
-2.52582e-08
-5.20375e-08
-2.46369e-08
-3.90229e-08
-2.22604e-08
-2.84532e-08
-2.16957e-08
-1.92036e-08
-2.24805e-08
-9.78145e-09
-2.5001e-08
1.45782e-09
-2.9071e-08
1.73176e-08
-3.54664e-08
3.77638e-08
-4.08198e-08
6.37182e-08
-4.60414e-08
9.53314e-08
-5.03005e-08
1.30691e-07
-5.10807e-08
1.66113e-07
-4.66285e-08
1.97242e-07
-3.65087e-08
2.16478e-07
-1.77198e-08
2.4188e-07
-2.4655e-08
2.48542e-07
-1.62986e-08
2.61707e-07
-3.70348e-08
2.81188e-07
-5.39152e-08
2.94098e-07
-4.8849e-08
2.92478e-07
-2.78793e-08
2.9635e-07
-2.37762e-08
3.08572e-07
-2.54745e-08
3.30613e-07
-3.255e-08
3.60416e-07
-3.84993e-08
3.95134e-07
-4.54808e-08
4.18666e-07
-3.95141e-08
4.42473e-07
-4.47032e-08
4.67836e-07
-4.83168e-08
4.93542e-07
-4.72497e-08
5.16627e-07
-4.00072e-08
5.33034e-07
-2.70522e-08
5.38589e-07
-1.01987e-08
5.32795e-07
4.27852e-09
5.3307e-07
-1.06639e-08
5.56571e-07
-5.10275e-08
6.01429e-07
-8.36832e-08
6.4605e-07
-8.23645e-08
6.67872e-07
-4.8632e-08
6.75382e-07
-2.30444e-08
6.79918e-07
-1.37252e-08
6.87407e-07
-1.44365e-08
6.97772e-07
-1.60315e-08
7.08217e-07
-1.34115e-08
7.14566e-07
-3.95811e-09
7.13117e-07
1.16006e-08
7.00373e-07
3.19681e-08
6.76669e-07
5.06939e-08
5.87877e-08
2.56977e-05
1.35639e-09
2.56995e-05
6.60188e-09
2.56999e-05
1.09649e-08
2.56991e-05
1.40286e-08
2.56981e-05
1.68532e-08
2.56969e-05
1.99249e-08
2.56955e-05
2.32571e-08
2.56936e-05
2.67885e-08
2.56911e-05
3.05475e-08
2.5688e-05
3.46133e-08
2.56842e-05
3.9059e-08
2.56797e-05
4.39516e-08
2.56744e-05
4.93641e-08
2.56681e-05
5.53813e-08
2.56608e-05
6.20995e-08
2.56523e-05
6.9626e-08
2.56426e-05
7.80806e-08
2.56315e-05
8.75975e-08
2.56188e-05
9.83279e-08
2.56044e-05
1.10442e-07
2.5588e-05
1.24131e-07
2.55696e-05
1.39612e-07
2.55489e-05
1.57128e-07
2.55255e-05
1.76955e-07
2.54995e-05
1.99402e-07
2.54703e-05
2.24818e-07
2.5438e-05
2.53592e-07
2.54021e-05
2.86163e-07
2.53626e-05
3.23017e-07
2.53193e-05
3.64696e-07
2.52721e-05
4.11799e-07
2.52211e-05
4.64986e-07
2.51666e-05
5.24979e-07
2.51091e-05
5.92569e-07
2.50494e-05
6.68615e-07
2.49888e-05
7.54053e-07
2.49292e-05
8.49907e-07
2.48734e-05
9.5729e-07
2.48248e-05
1.07744e-06
2.47879e-05
1.21175e-06
2.47681e-05
1.36185e-06
2.47714e-05
1.52971e-06
2.48036e-05
1.71772e-06
2.48698e-05
1.92883e-06
2.49723e-05
2.1667e-06
2.51087e-05
2.43574e-06
2.527e-05
2.74113e-06
2.54373e-05
3.08893e-06
2.55807e-05
3.48545e-06
2.56605e-05
3.93817e-06
2.56259e-05
4.45304e-06
2.54407e-05
5.03466e-06
2.50882e-05
5.70924e-06
2.45478e-05
6.42585e-06
2.41202e-05
7.38814e-06
2.16745e-05
7.91352e-06
1.72867e-05
8.67129e-06
1.1858e-05
7.53377e-06
7.09146e-06
5.21153e-06
3.84583e-06
3.46499e-06
1.90834e-06
2.19737e-06
1.08738e-06
1.09128e-06
1.10635e-06
1.40879e-07
1.1186e-06
6.98536e-08
9.83263e-07
1.73903e-07
8.14375e-07
1.87814e-07
6.83609e-07
1.48072e-07
6.2818e-07
7.90199e-08
6.01284e-07
6.23785e-08
6.6945e-07
-2.3992e-08
6.79883e-07
4.5341e-08
6.70264e-07
6.17418e-08
6.74941e-07
2.96145e-08
6.87124e-07
3.99861e-09
6.74885e-07
1.99653e-08
6.60526e-07
1.52285e-08
6.57724e-07
-4.22437e-09
6.5933e-07
-1.11732e-08
6.52947e-07
2.48482e-09
6.36827e-07
2.2754e-08
6.32616e-07
2.29826e-08
6.52614e-07
1.74772e-08
7.63037e-07
-5.89911e-08
7.03836e-07
1.35182e-07
6.08991e-07
1.64334e-07
5.69854e-07
6.89485e-08
6.08967e-07
-4.96803e-08
7.04882e-07
-1.01428e-07
7.25387e-07
-9.27049e-09
7.04935e-07
3.46744e-08
6.84261e-07
3.37942e-08
6.26261e-07
7.67569e-08
6.04563e-07
5.30021e-08
6.16301e-07
2.76839e-08
6.01123e-07
5.90038e-08
4.89663e-07
1.60267e-07
4.02053e-07
1.37779e-07
2.88939e-07
1.62457e-07
1.98506e-07
1.38174e-07
1.51081e-07
8.54745e-08
1.12579e-07
6.46603e-08
7.2526e-08
5.80396e-08
7.69436e-08
6.55697e-09
1.19458e-07
-3.61511e-08
1.53921e-07
-3.08649e-08
1.85549e-07
-3.0594e-08
2.1022e-07
-1.9912e-08
2.09541e-07
1.47637e-08
1.91868e-07
2.69568e-08
1.72591e-07
2.05466e-08
1.60799e-07
8.68672e-09
1.61953e-07
-4.32478e-09
1.61931e-07
-2.97959e-09
1.56069e-07
1.93077e-09
1.48948e-07
3.92306e-09
1.41092e-07
7.24868e-09
1.31125e-07
1.18838e-08
1.20158e-07
1.55365e-08
1.09517e-07
1.80698e-08
1.00863e-07
1.87168e-08
9.49356e-08
1.70666e-08
8.83814e-08
1.67619e-08
8.26827e-08
1.44058e-08
7.56886e-08
1.5196e-08
6.56849e-08
1.84051e-08
5.30928e-08
2.14001e-08
3.79372e-08
2.43809e-08
2.10556e-08
2.61516e-08
3.73856e-09
2.61388e-08
-1.24696e-08
2.42539e-08
-2.59067e-08
2.04829e-08
-3.61978e-08
1.60795e-08
-4.25114e-08
1.06474e-08
-4.47255e-08
5.0869e-09
-4.07737e-08
-2.46236e-09
-3.1157e-08
-9.71546e-09
-1.78356e-08
-1.54472e-08
-3.20144e-09
-1.89765e-08
1.06763e-08
-2.00779e-08
2.34145e-08
-1.97965e-08
3.97078e-08
-2.34616e-08
6.10986e-08
-2.87694e-08
8.22216e-08
-2.87866e-08
9.96963e-08
-2.52328e-08
1.12482e-07
-2.00956e-08
1.21111e-07
-1.48995e-08
1.26948e-07
-1.06491e-08
1.32165e-07
-8.63663e-09
1.37418e-07
-7.98185e-09
1.38316e-07
-3.26184e-09
1.32639e-07
3.76776e-09
1.22206e-07
9.76372e-09
1.1383e-07
9.74743e-09
1.12135e-07
4.56965e-09
1.16509e-07
-8.87579e-10
1.23578e-07
-3.65536e-09
1.29435e-07
-2.58126e-09
1.29891e-07
3.38675e-09
1.232e-07
1.20537e-08
1.15642e-07
1.42633e-08
1.12694e-07
1.00611e-08
1.10212e-07
9.3454e-09
1.05857e-07
1.0617e-08
9.99528e-08
1.20056e-08
9.15789e-08
1.53716e-08
8.2871e-08
1.75048e-08
7.33486e-08
2.09951e-08
6.74042e-08
1.92755e-08
6.35742e-08
1.73608e-08
5.80878e-08
1.89182e-08
5.0941e-08
2.03811e-08
4.52221e-08
1.85086e-08
4.28931e-08
1.37973e-08
4.28969e-08
9.31344e-09
4.28643e-08
6.8732e-09
4.11258e-08
6.68805e-09
2.56619e-08
2.05283e-08
-8.25132e-09
3.84267e-08
-2.13944e-08
1.48187e-08
-5.41707e-10
-2.19855e-08
3.08065e-08
-3.56373e-08
2.9084e-08
-3.03649e-09
6.11821e-09
1.88797e-08
1.32481e-08
-1.2661e-08
4.49423e-08
-3.79311e-08
9.66356e-08
-5.72907e-08
1.82462e-07
-8.92326e-08
3.25834e-07
-1.42689e-07
4.35197e-07
-1.02151e-07
3.95549e-07
5.6717e-08
3.45213e-07
7.02329e-08
3.99284e-07
-3.88316e-08
5.36129e-07
-1.2322e-07
6.19917e-07
-6.87276e-08
6.38388e-07
-1.11386e-09
5.93934e-07
6.15e-08
4.88008e-07
1.18941e-07
4.07659e-07
8.46861e-08
3.62372e-07
3.94606e-08
3.25307e-07
2.26922e-08
2.65902e-07
3.69324e-08
1.92996e-07
4.76483e-08
1.08365e-07
5.99936e-08
1.15428e-08
7.45621e-08
-6.87291e-08
5.85761e-08
-1.35829e-07
4.46196e-08
-2.11096e-07
5.02658e-08
-3.01562e-07
6.13951e-08
-3.87604e-07
5.05748e-08
-4.31459e-07
3.03561e-09
-4.22451e-07
-5.50493e-08
-3.80878e-07
-9.18737e-08
-3.07503e-07
-1.24456e-07
-2.1495e-07
-1.39181e-07
-9.3255e-08
-1.58203e-07
1.33313e-07
-2.44288e-07
3.85252e-07
-2.76595e-07
4.26159e-07
-5.72052e-08
4.58865e-07
-6.97407e-08
4.65272e-07
-6.03223e-08
4.06344e-07
1.00795e-08
2.09931e-07
1.68533e-07
1.52606e-07
3.35493e-08
1.43509e-07
-1.6378e-08
1.83714e-07
-7.27547e-08
3.073e-07
-1.62085e-07
5.23144e-07
-2.61326e-07
5.64998e-07
-8.13676e-08
5.78985e-07
-5.86899e-08
6.04739e-07
-7.40714e-08
6.44261e-07
-8.67711e-08
6.94585e-07
-9.03321e-08
7.44122e-07
-7.65883e-08
7.9941e-07
-6.54874e-08
7.83918e-07
1.97711e-08
7.51139e-07
2.21147e-08
7.71578e-07
-7.14665e-08
8.32588e-07
-1.44693e-07
8.8531e-07
-1.35086e-07
8.43824e-07
-7.14593e-09
8.33004e-07
-1.22247e-08
8.33439e-07
-1.41605e-08
8.40386e-07
-2.13834e-08
8.55593e-07
-3.12386e-08
8.74654e-07
-3.24718e-08
8.94368e-07
-2.3672e-08
9.05938e-07
2.97877e-11
8.86545e-07
5.1362e-08
8.44796e-07
9.24425e-08
1.03782e-07
2.57012e-05
1.86077e-09
2.57001e-05
7.71097e-09
2.56994e-05
1.16829e-08
2.56992e-05
1.4219e-08
2.56991e-05
1.69626e-08
2.56987e-05
2.0297e-08
2.5698e-05
2.39533e-08
2.5697e-05
2.77711e-08
2.56958e-05
3.18181e-08
2.56942e-05
3.62166e-08
2.56922e-05
4.10511e-08
2.56897e-05
4.63818e-08
2.56868e-05
5.22785e-08
2.56834e-05
5.88293e-08
2.56793e-05
6.61355e-08
2.56746e-05
7.43085e-08
2.56693e-05
8.3471e-08
2.56631e-05
9.37602e-08
2.56561e-05
1.0533e-07
2.56482e-05
1.18352e-07
2.56393e-05
1.33019e-07
2.56294e-05
1.49546e-07
2.56183e-05
1.68175e-07
2.56061e-05
1.89174e-07
2.55927e-05
2.12845e-07
2.55779e-05
2.39523e-07
2.5562e-05
2.69582e-07
2.55447e-05
3.03435e-07
2.55262e-05
3.41542e-07
2.55064e-05
3.84408e-07
2.54857e-05
4.3259e-07
2.54639e-05
4.86697e-07
2.54415e-05
5.47392e-07
2.54187e-05
6.15393e-07
2.53958e-05
6.91471e-07
2.53735e-05
7.76451e-07
2.53522e-05
8.71206e-07
2.53328e-05
9.76654e-07
2.53165e-05
1.09376e-06
2.53047e-05
1.22353e-06
2.52995e-05
1.36705e-06
2.53037e-05
1.52548e-06
2.53213e-05
1.70015e-06
2.53575e-05
1.89263e-06
2.54193e-05
2.10491e-06
2.55155e-05
2.33956e-06
2.56566e-05
2.60003e-06
2.58546e-05
2.89087e-06
2.61222e-05
3.21789e-06
2.64721e-05
3.58823e-06
2.69144e-05
4.01079e-06
2.74566e-05
4.49241e-06
2.81186e-05
5.0473e-06
2.88821e-05
5.6623e-06
2.99053e-05
6.36495e-06
3.07373e-05
7.08158e-06
3.15694e-05
7.83918e-06
3.09951e-05
8.10802e-06
2.82725e-05
7.93414e-06
2.4071e-05
7.66647e-06
1.89318e-05
7.33663e-06
1.36079e-05
6.41511e-06
8.84754e-06
4.90128e-06
5.12295e-06
3.79445e-06
2.64555e-06
2.6513e-06
1.16832e-06
1.66504e-06
3.64551e-07
9.51842e-07
2.62483e-08
4.17323e-07
-4.38312e-09
9.30099e-08
3.11446e-07
-3.39822e-07
7.45687e-07
-3.889e-07
1.05809e-06
-2.50664e-07
1.13232e-06
-4.46114e-08
1.08442e-06
5.1902e-08
9.98186e-07
1.06195e-07
9.42578e-07
7.08365e-08
8.87024e-07
5.13303e-08
8.18823e-07
5.70271e-08
7.07506e-07
1.13803e-07
5.64395e-07
1.65865e-07
2.71127e-07
3.1625e-07
5.28194e-07
-2.3959e-07
1.70887e-06
-1.23967e-06
1.56552e-06
2.78529e-07
1.41261e-06
3.17248e-07
1.39556e-06
8.59938e-08
1.47905e-06
-1.33163e-07
1.49923e-06
-1.21608e-07
1.47869e-06
1.12634e-08
1.51368e-06
-3.13668e-10
1.62756e-06
-8.00891e-08
1.7795e-06
-7.51793e-08
1.93878e-06
-1.06276e-07
2.01544e-06
-4.89807e-08
1.7553e-06
3.19142e-07
1.48251e-06
4.33066e-07
1.2617e-06
3.58587e-07
9.80384e-07
4.4377e-07
6.75452e-07
4.43107e-07
3.45822e-07
4.15105e-07
-3.27126e-08
4.43195e-07
-2.36818e-07
2.62145e-07
-1.30165e-07
-1.00097e-07
3.04807e-07
-4.71123e-07
9.34585e-07
-6.60643e-07
1.14598e-06
-2.41992e-07
1.05585e-06
7.02197e-08
9.78237e-07
9.23776e-08
7.18626e-07
2.86568e-07
4.3194e-07
3.07232e-07
3.26735e-07
1.13892e-07
4.01421e-07
-7.90107e-08
4.46395e-07
-4.7953e-08
3.55292e-07
9.30336e-08
3.09582e-07
4.96333e-08
2.98416e-07
1.84142e-08
2.58915e-07
5.13849e-08
2.35265e-07
3.91869e-08
2.37236e-07
1.6099e-08
2.34842e-07
2.11109e-08
2.58148e-07
-6.24015e-09
2.26284e-07
4.86261e-08
2.16335e-07
2.43547e-08
2.50153e-07
-1.86218e-08
2.59982e-07
8.57639e-09
2.35062e-07
4.63198e-08
1.90702e-07
6.87406e-08
1.16265e-07
1.00589e-07
2.75598e-09
1.39648e-07
-1.18518e-07
1.45528e-07
-2.34622e-07
1.36587e-07
-3.56468e-07
1.37925e-07
-4.82378e-07
1.36558e-07
-5.99312e-07
1.22022e-07
-6.69697e-07
6.79219e-08
-6.71122e-07
-8.29067e-09
-6.09307e-07
-7.72613e-08
-4.95233e-07
-1.33051e-07
-3.88126e-07
-1.27185e-07
-3.60729e-07
-4.71932e-08
-3.18289e-07
-6.59014e-08
-1.99175e-07
-1.47884e-07
-2.86364e-08
-1.99325e-07
1.12471e-07
-1.6634e-07
1.92438e-07
-1.00063e-07
2.13982e-07
-3.64437e-08
1.95803e-07
7.53039e-09
1.92898e-07
-5.73162e-09
2.74653e-07
-8.97371e-08
4.24571e-07
-1.5318e-07
4.62573e-07
-3.42339e-08
3.46368e-07
1.25968e-07
1.66942e-07
1.89174e-07
6.88133e-08
1.02698e-07
9.72396e-08
-2.93139e-08
2.16318e-07
-1.22734e-07
3.83036e-07
-1.69299e-07
5.13484e-07
-1.27061e-07
4.46583e-07
7.89548e-08
3.43329e-07
1.17517e-07
3.42402e-07
1.09885e-08
3.94793e-07
-4.30457e-08
4.26529e-07
-2.11192e-08
4.44008e-07
-5.47315e-09
3.46554e-07
1.12826e-07
1.76299e-07
1.8776e-07
8.1712e-08
1.15582e-07
9.10857e-08
9.90184e-09
1.9316e-07
-8.47135e-08
2.80272e-07
-6.8194e-08
2.19634e-07
8.10197e-08
1.59603e-07
7.85396e-08
1.77511e-07
-4.1107e-09
2.52139e-07
-6.53144e-08
3.67449e-07
-1.08437e-07
5.37802e-07
-1.63665e-07
7.80837e-07
-2.22507e-07
1.12914e-06
-3.0988e-07
1.59375e-06
-4.49789e-07
2.17825e-06
-6.06489e-07
2.88642e-06
-7.43803e-07
3.70645e-06
-8.23068e-07
4.54604e-06
-8.20703e-07
5.29854e-06
-7.65169e-07
5.79295e-06
-5.32337e-07
5.81833e-06
-8.26678e-08
5.35417e-06
3.74923e-07
4.30702e-06
9.04462e-07
2.93304e-06
1.27183e-06
1.86722e-06
1.12253e-06
9.05993e-07
1.03146e-06
-4.93322e-07
1.36048e-06
-2.19598e-06
1.57944e-06
-3.67604e-06
1.41133e-06
-5.01633e-06
1.33917e-06
-6.54604e-06
1.59121e-06
-8.25613e-06
1.82903e-06
-9.86057e-06
1.68912e-06
-1.09292e-05
1.10807e-06
-1.14339e-05
5.27448e-07
-1.16649e-05
2.67874e-07
-1.19307e-05