/*--------------------------------*- C++ -*----------------------------------*\
| =========                 |                                                 |
| \\      /  F ield         | OpenFOAM: The Open Source CFD Toolbox           |
|  \\    /   O peration     | Version:  2406                                  |
|   \\  /    A nd           | Website:  www.openfoam.com                      |
|    \\/     M anipulation  |                                                 |
\*---------------------------------------------------------------------------*/
FoamFile
{
    version     2.0;
    format      ascii;
    arch        "LSB;label=32;scalar=64";
    class       volVectorField;
    location    "0.2";
    object      U;
}
// * * * * * * * * * * * * * * * * * * * * * * * * * * * * * * * * * * * * * //

dimensions      [0 1 -1 0 0 0 0];

internalField   nonuniform List<vector> 
6250
(
(42.7128 0.014877 0)
(47.5713 0.056084 0)
(31.0227 0.0701258 0)
(27.0716 0.0681658 0)
(30.7626 0.0689408 0)
(32.9406 0.0762897 0)
(32.5728 0.0852537 0)
(31.7694 0.0924078 0)
(31.5378 0.0984869 0)
(31.6414 0.105025 0)
(31.6987 0.112447 0)
(31.6363 0.120517 0)
(31.538 0.129144 0)
(31.457 0.138521 0)
(31.3881 0.148907 0)
(31.3132 0.160503 0)
(31.226 0.173481 0)
(31.1288 0.188046 0)
(31.0232 0.204449 0)
(30.9082 0.22298 0)
(30.7815 0.243963 0)
(30.6411 0.267762 0)
(30.4853 0.294784 0)
(30.3118 0.325493 0)
(30.1184 0.360407 0)
(29.9019 0.400104 0)
(29.659 0.445222 0)
(29.386 0.49646 0)
(29.0784 0.554574 0)
(28.7314 0.62036 0)
(28.3394 0.694643 0)
(27.8961 0.77824 0)
(27.3946 0.871917 0)
(26.8269 0.976323 0)
(26.1849 1.09189 0)
(25.4593 1.21871 0)
(24.6407 1.35634 0)
(23.7194 1.50358 0)
(22.6859 1.65826 0)
(21.5316 1.81703 0)
(20.2489 1.97505 0)
(18.833 2.12564 0)
(17.2826 2.25999 0)
(15.5999 2.36658 0)
(13.7935 2.43133 0)
(11.8755 2.43812 0)
(9.87623 2.36943 0)
(7.80208 2.20567 0)
(5.78309 1.93285 0)
(3.60182 1.47567 0)
(1.945 0.888191 0)
(0.390174 -2.80539 0)
(-0.0963294 -7.10191 0)
(3.38958 -6.0572 0)
(0.69175 1.02815 0)
(0.575402 0.437092 0)
(0.463065 0.140249 0)
(0.352269 0.0447419 0)
(0.282179 0.0185055 0)
(0.252093 -0.00479536 0)
(0.246377 -0.0118364 0)
(0.242228 -0.0042534 0)
(0.230153 0.00209501 0)
(0.215571 0.0020264 0)
(0.206352 -0.000561089 0)
(0.203944 -0.00223078 0)
(0.204899 -0.00222182 0)
(0.204871 -0.000881145 0)
(0.201196 0.00125922 0)
(0.193075 0.00333431 0)
(0.181382 0.00450362 0)
(0.168487 0.00430865 0)
(0.157211 0.00303988 0)
(0.149336 0.00146687 0)
(0.145094 -1.93181e-05 0)
(0.144158 -0.00154261 0)
(0.145926 -0.00278405 0)
(0.149034 -0.00293465 0)
(0.15149 -0.00180029 0)
(0.151525 -4.42053e-05 0)
(0.148115 0.00178351 0)
(0.140748 0.0035336 0)
(0.129879 0.00470766 0)
(0.116843 0.0051001 0)
(0.104289 0.00419713 0)
(0.0956114 0.00186605 0)
(0.0921292 -0.0003374 0)
(0.0917789 -0.00119143 0)
(0.0918784 -0.00138068 0)
(0.0917081 -0.00168607 0)
(0.0915517 -0.00196437 0)
(0.0909826 -0.00188712 0)
(0.08914 -0.00145732 0)
(0.0856997 -0.000977568 0)
(0.0810684 -0.000679484 0)
(0.0758329 -0.000479531 0)
(0.0703347 -0.000173294 0)
(0.0646818 0.000363241 0)
(0.058941 0.000991502 0)
(0.0533819 0.00140974 0)
(0.0484127 0.00152345 0)
(0.0442876 0.00144931 0)
(0.0410124 0.00130081 0)
(0.0383879 0.00115577 0)
(0.0361043 0.00108349 0)
(0.0338256 0.00112305 0)
(0.03125 0.00124944 0)
(0.0283316 0.00125558 0)
(0.025649 0.000918374 0)
(0.0240152 0.000386441 0)
(0.023693 -8.64802e-05 0)
(0.0243908 -0.000404114 0)
(0.0257133 -0.00060393 0)
(0.0273656 -0.000715346 0)
(0.0290369 -0.00066078 0)
(0.0303659 -0.000431846 0)
(0.0310629 -9.27337e-05 0)
(0.0309514 0.00030131 0)
(0.029952 0.000720372 0)
(0.0281267 0.0010778 0)
(0.0257427 0.00126959 0)
(0.0232116 0.00126145 0)
(0.020871 0.00114038 0)
(0.0188117 0.00102738 0)
(0.0169296 0.000968991 0)
(0.0150918 0.000952502 0)
(0.0132291 0.000952119 0)
(0.0113415 0.000943339 0)
(0.00947166 0.000910935 0)
(0.00767565 0.000849164 0)
(0.00600635 0.000753926 0)
(0.00451186 0.000620325 0)
(0.00323802 0.000447175 0)
(0.00222745 0.000237397 0)
(0.00152109 -1.06805e-05 0)
(0.00115922 -0.000284692 0)
(0.00120258 -0.000509024 0)
(0.00168596 -0.000697127 0)
(0.00254545 -0.000867824 0)
(0.00367776 -0.00102443 0)
(0.00502022 -0.0011689 0)
(0.00655263 -0.00129833 0)
(0.00825755 -0.00139944 0)
(0.0100879 -0.00145681 0)
(0.011966 -0.00145753 0)
(0.0138061 -0.00139984 0)
(0.0155397 -0.0012976 0)
(0.0171255 -0.00117584 0)
(0.0185403 -0.00105268 0)
(0.0197637 -0.00092499 0)
(0.0207586 -0.000780635 0)
(0.0214653 -0.000617839 0)
(0.0218448 -0.000478697 0)
(0.0219292 -0.000374954 0)
(0.0218037 -0.000297239 0)
(0.0215503 -0.000245681 0)
(0.021204 -0.000205782 0)
(0.0207413 -0.000163083 0)
(0.0201298 -0.000111409 0)
(0.0193891 -7.72704e-05 0)
(0.0185935 -8.45496e-05 0)
(0.0178051 -0.00012757 0)
(0.0170318 -0.000177276 0)
(0.0162355 -0.000199003 0)
(0.0153464 -0.000171482 0)
(0.0142899 -8.56248e-05 0)
(0.0129985 4.52499e-05 0)
(0.0114439 0.000165975 0)
(0.00967945 0.000236776 0)
(0.00779633 0.000276855 0)
(0.00588449 0.000306115 0)
(0.00405152 0.00032411 0)
(0.0024283 0.000325954 0)
(0.00113643 0.000322137 0)
(0.000230988 0.000342042 0)
(-0.0003533 0.000423802 0)
(-0.000825556 0.000594393 0)
(-0.0014622 0.000845976 0)
(-0.00250117 0.00113898 0)
(-0.00394637 0.00130879 0)
(-0.00541589 0.00114071 0)
(-0.0064268 0.000727977 0)
(-0.00674775 0.000309401 0)
(-0.00652911 -5.07882e-05 0)
(-0.0060798 -0.000272719 0)
(-0.00563378 -0.000414383 0)
(-0.00533118 -0.000635734 0)
(-0.00513803 -0.00113486 0)
(-0.00494122 -0.00196254 0)
(-0.00477998 -0.00265101 0)
(-0.00481571 -0.00273119 0)
(-0.00520175 -0.00208239 0)
(-0.0061039 -0.000963141 0)
(-0.00760034 0.000219851 0)
(-0.00952878 0.00116776 0)
(-0.011519 0.00171543 0)
(-0.0131821 0.00189488 0)
(-0.0143532 0.00203395 0)
(-0.0151529 0.00229478 0)
(-0.0157865 0.002621 0)
(-0.0163056 0.00286589 0)
(-0.0165259 0.00292764 0)
(-0.0160872 0.00276155 0)
(-0.014612 0.00237245 0)
(-0.0118827 0.00179474 0)
(-0.00785108 0.00107243 0)
(-0.00259611 0.000294649 0)
(0.00368586 -0.000392072 0)
(0.0106798 -0.000817573 0)
(0.0179707 -0.000807487 0)
(0.0250809 -0.000296623 0)
(0.0315017 0.000701812 0)
(0.0367362 0.00211225 0)
(0.0403274 0.00369635 0)
(0.0418531 0.00505912 0)
(0.040888 0.00555534 0)
(0.0389531 0.00391904 0)
(0.0396226 -0.000216358 0)
(0.046386 -0.00513289 0)
(0.0598593 -0.00874777 0)
(0.0764469 -0.00963078 0)
(0.0914715 -0.00772133 0)
(0.102142 -0.00429432 0)
(0.108385 -0.000829127 0)
(0.111773 0.00186926 0)
(0.11392 0.00347874 0)
(0.11615 0.00338138 0)
(0.119659 0.00191943 0)
(0.125048 0.000215728 0)
(0.131909 -0.000835954 0)
(0.139034 -0.000915584 0)
(0.144964 -0.000133833 0)
(0.148612 0.0010771 0)
(0.149786 0.00210752 0)
(0.149836 0.00217362 0)
(0.152101 0.000144232 0)
(0.160008 -0.00319414 0)
(0.173585 -0.0055302 0)
(0.189046 -0.005601 0)
(0.201917 -0.00389413 0)
(0.210222 -0.00198088 0)
(0.214827 -0.000769989 0)
(0.217451 -0.000208964 0)
(0.219096 0.000203276 0)
(0.21969 0.000905899 0)
(0.218462 0.00211429 0)
(0.214438 0.00378295 0)
(0.206588 0.00573518 0)
(0.193972 0.00789969 0)
(0.179388 0.0103245 0)
(42.7472 0.0117158 0)
(47.6958 0.0457181 0)
(31.214 0.0606251 0)
(27.2904 0.0599945 0)
(31.011 0.0608647 0)
(33.2431 0.0678237 0)
(32.9429 0.0764284 0)
(32.2073 0.0833841 0)
(32.0418 0.0893629 0)
(32.2137 0.0959377 0)
(32.3445 0.103607 0)
(32.3613 0.112172 0)
(32.3472 0.121561 0)
(32.3554 0.131997 0)
(32.3813 0.143786 0)
(32.4079 0.157189 0)
(32.4299 0.172449 0)
(32.4504 0.189855 0)
(32.4722 0.209756 0)
(32.4953 0.232562 0)
(32.5191 0.258742 0)
(32.5433 0.288838 0)
(32.5679 0.323481 0)
(32.5929 0.363408 0)
(32.6183 0.409475 0)
(32.6438 0.462682 0)
(32.669 0.524185 0)
(32.6935 0.595325 0)
(32.7165 0.677646 0)
(32.737 0.772916 0)
(32.7535 0.883142 0)
(32.7641 1.01058 0)
(32.766 1.15773 0)
(32.7555 1.32729 0)
(32.7281 1.52215 0)
(32.6773 1.74523 0)
(32.5951 1.99939 0)
(32.4717 2.28715 0)
(32.2949 2.6103 0)
(32.0502 2.96947 0)
(31.7205 3.36346 0)
(31.286 3.78868 0)
(30.7247 4.23834 0)
(30.0126 4.70171 0)
(29.1263 5.16342 0)
(28.0419 5.60269 0)
(26.7422 5.99338 0)
(25.2054 6.30115 0)
(23.4389 6.48923 0)
(21.4304 6.49456 0)
(19.1128 6.27275 0)
(16.7115 5.6319 0)
(12.8546 4.55548 0)
(9.70483 3.23586 0)
(2.36845 3.7537 0)
(1.92615 1.15021 0)
(1.34142 0.403511 0)
(1.01746 0.311918 0)
(0.859722 0.184939 0)
(0.773915 0.0711759 0)
(0.731403 0.0295117 0)
(0.68849 0.0457076 0)
(0.630918 0.0637646 0)
(0.578718 0.0497147 0)
(0.548571 0.0220721 0)
(0.535421 0.00245047 0)
(0.528784 -0.00135585 0)
(0.521553 0.00771086 0)
(0.509523 0.0235574 0)
(0.490953 0.0393348 0)
(0.467142 0.0494272 0)
(0.442276 0.048796 0)
(0.421083 0.0381336 0)
(0.406967 0.0242238 0)
(0.398918 0.0112875 0)
(0.396061 0.000290773 0)
(0.39745 -0.00711714 0)
(0.40107 -0.00851793 0)
(0.404146 -0.00345431 0)
(0.402337 0.00569617 0)
(0.394692 0.0186522 0)
(0.379081 0.0338304 0)
(0.356736 0.0459813 0)
(0.329183 0.0512345 0)
(0.300797 0.0431037 0)
(0.28038 0.0233584 0)
(0.272779 0.0058727 0)
(0.271913 0.0012035 0)
(0.269849 0.00283981 0)
(0.264827 0.00287663 0)
(0.258352 0.00284139 0)
(0.250241 0.00635429 0)
(0.239173 0.0129457 0)
(0.224759 0.0189141 0)
(0.208137 0.022393 0)
(0.190848 0.0241754 0)
(0.173841 0.0249016 0)
(0.157262 0.0250093 0)
(0.141115 0.0243349 0)
(0.126221 0.0220222 0)
(0.113804 0.0184126 0)
(0.104266 0.0145284 0)
(0.0971336 0.0110436 0)
(0.0918394 0.00858738 0)
(0.0879008 0.00753752 0)
(0.0846843 0.00797195 0)
(0.0811851 0.00996698 0)
(0.0768067 0.0115165 0)
(0.0727015 0.00885058 0)
(0.0705222 0.0036445 0)
(0.070594 -0.00101405 0)
(0.0721039 -0.00383343 0)
(0.0743062 -0.00541763 0)
(0.0768569 -0.00618469 0)
(0.0793693 -0.00566702 0)
(0.0811452 -0.0038459 0)
(0.081694 -0.00121576 0)
(0.0809011 0.00191453 0)
(0.0787175 0.00515728 0)
(0.0751583 0.00782917 0)
(0.0706542 0.00916092 0)
(0.0659938 0.00897355 0)
(0.0617983 0.00797196 0)
(0.0581172 0.00709973 0)
(0.0546409 0.00670751 0)
(0.0511051 0.00666767 0)
(0.0474185 0.00674234 0)
(0.0436306 0.00672306 0)
(0.0398718 0.00651949 0)
(0.0362816 0.00615054 0)
(0.0329772 0.00565176 0)
(0.030064 0.00502585 0)
(0.0276385 0.00427256 0)
(0.0257707 0.00340432 0)
(0.0245443 0.00240833 0)
(0.0241649 0.00122799 0)
(0.0246286 -0.000155642 0)
(0.0257433 -0.00155018 0)
(0.0274135 -0.00271578 0)
(0.0295109 -0.00353333 0)
(0.0319186 -0.0041205 0)
(0.0345758 -0.00467782 0)
(0.0374266 -0.00522336 0)
(0.0403706 -0.00563013 0)
(0.0432619 -0.00575185 0)
(0.0459312 -0.0055542 0)
(0.0482369 -0.00512931 0)
(0.0501223 -0.00464679 0)
(0.0516238 -0.00421769 0)
(0.0527857 -0.00372839 0)
(0.0535677 -0.00299733 0)
(0.0538021 -0.00191286 0)
(0.0534393 -0.000600037 0)
(0.0526356 0.000546193 0)
(0.0515148 0.00129179 0)
(0.0501744 0.00169222 0)
(0.0486601 0.0019799 0)
(0.0469017 0.00240213 0)
(0.04477 0.00296748 0)
(0.0422304 0.00339106 0)
(0.0394383 0.00348315 0)
(0.0365782 0.00333325 0)
(0.0337109 0.00315724 0)
(0.0307567 0.00323358 0)
(0.0275541 0.00374632 0)
(0.0239112 0.00469011 0)
(0.0196074 0.00590066 0)
(0.0145855 0.00692472 0)
(0.00910215 0.00747342 0)
(0.00346155 0.00765354 0)
(-0.00217209 0.00750361 0)
(-0.00762855 0.00691334 0)
(-0.0126468 0.00579735 0)
(-0.0169373 0.00428627 0)
(-0.0203128 0.0027765 0)
(-0.0228166 0.0018277 0)
(-0.0247678 0.00184102 0)
(-0.0265997 0.00255995 0)
(-0.0287292 0.00349604 0)
(-0.0312776 0.00390714 0)
(-0.0336358 0.00293324 0)
(-0.0349936 0.00116671 0)
(-0.0353255 -0.000551316 0)
(-0.0349654 -0.00180255 0)
(-0.0343302 -0.00220557 0)
(-0.0341942 -0.00182815 0)
(-0.0350889 -0.000947704 0)
(-0.0368816 -0.000177149 0)
(-0.0386298 0.000454025 0)
(-0.0395421 0.00200752 0)
(-0.0398688 0.00352852 0)
(-0.0405755 0.00493603 0)
(-0.0424867 0.00661289 0)
(-0.0454135 0.00823868 0)
(-0.0484478 0.00882458 0)
(-0.0507468 0.00771512 0)
(-0.0512241 0.00538577 0)
(-0.0492614 0.00298436 0)
(-0.0452383 0.00136707 0)
(-0.0398153 0.000375687 0)
(-0.0334356 -0.000820244 0)
(-0.0262071 -0.0028433 0)
(-0.0181966 -0.00617596 0)
(-0.00935177 -0.0106265 0)
(0.000492766 -0.015529 0)
(0.0115894 -0.0203381 0)
(0.0243638 -0.0245911 0)
(0.039104 -0.0278936 0)
(0.055713 -0.0301402 0)
(0.0736474 -0.0309856 0)
(0.0920875 -0.0301786 0)
(0.110183 -0.0275695 0)
(0.126847 -0.0230761 0)
(0.14063 -0.0167035 0)
(0.149766 -0.00873628 0)
(0.15239 -0.00122077 0)
(0.150929 -0.00312804 0)
(0.153597 -0.0159854 0)
(0.167612 -0.0384805 0)
(0.192954 -0.0555845 0)
(0.222706 -0.0561253 0)
(0.249081 -0.0433205 0)
(0.268757 -0.0289005 0)
(0.282781 -0.0193173 0)
(0.293495 -0.015013 0)
(0.302721 -0.0141183 0)
(0.312423 -0.0169253 0)
(0.325406 -0.0218618 0)
(0.343256 -0.0267178 0)
(0.364472 -0.0287831 0)
(0.386064 -0.0264065 0)
(0.404938 -0.0195485 0)
(0.418773 -0.0105198 0)
(0.42635 -0.00377505 0)
(0.427975 -0.00508717 0)
(0.430835 -0.0202572 0)
(0.446485 -0.0430191 0)
(0.476873 -0.058158 0)
(0.51222 -0.0560249 0)
(0.540935 -0.0401909 0)
(0.558413 -0.0236591 0)
(0.568032 -0.0132947 0)
(0.574796 -0.00834417 0)
(0.581129 -0.00494325 0)
(0.586533 0.000193263 0)
(0.588916 0.00861243 0)
(0.585813 0.020034 0)
(0.574798 0.0327712 0)
(0.554406 0.043686 0)
(0.530315 0.0494802 0)
(42.7425 0.00118896 0)
(47.6593 0.00500224 0)
(31.1398 0.0100713 0)
(27.2063 0.0161596 0)
(30.9249 0.0225088 0)
(33.1427 0.0282379 0)
(32.8184 0.0336352 0)
(32.0581 0.039333 0)
(31.8701 0.0455407 0)
(32.0199 0.0522892 0)
(32.1266 0.0596484 0)
(32.1169 0.0677511 0)
(32.0746 0.0767518 0)
(32.0531 0.086814 0)
(32.0476 0.0981159 0)
(32.0407 0.11086 0)
(32.0268 0.12528 0)
(32.0089 0.141644 0)
(31.9895 0.160263 0)
(31.9687 0.181495 0)
(31.9454 0.205758 0)
(31.9192 0.233538 0)
(31.8899 0.265409 0)
(31.8576 0.302044 0)
(31.8221 0.344235 0)
(31.7833 0.392918 0)
(31.7414 0.449198 0)
(31.6964 0.514386 0)
(31.6486 0.590031 0)
(31.5986 0.677967 0)
(31.5472 0.780362 0)
(31.4954 0.899772 0)
(31.4448 1.03919 0)
(31.3973 1.20212 0)
(31.3554 1.39259 0)
(31.3218 1.61519 0)
(31.2999 1.87509 0)
(31.2928 2.17791 0)
(31.3032 2.5295 0)
(31.3325 2.9356 0)
(31.3802 3.40135 0)
(31.443 3.93054 0)
(31.5132 4.52484 0)
(31.5774 5.18268 0)
(31.615 5.89802 0)
(31.5967 6.65879 0)
(31.4826 7.4463 0)
(31.2215 8.23387 0)
(30.7413 8.9872 0)
(29.9725 9.67111 0)
(28.7564 10.2256 0)
(27.0639 10.7012 0)
(24.5604 11.2662 0)
(21.3828 11.8259 0)
(17.8849 13.8324 0)
(12.1792 5.77553 0)
(5.66394 2.1799 0)
(2.45744 1.17787 0)
(1.93381 0.561698 0)
(1.68809 0.168028 0)
(1.39294 0.0992008 0)
(1.08439 0.208127 0)
(0.915083 0.220685 0)
(0.838578 0.158042 0)
(0.80258 0.0897128 0)
(0.784461 0.0453355 0)
(0.77111 0.0331736 0)
(0.755744 0.042274 0)
(0.735152 0.0619978 0)
(0.71121 0.0816027 0)
(0.682901 0.0913039 0)
(0.651907 0.0852807 0)
(0.628186 0.0637544 0)
(0.618034 0.0380362 0)
(0.61659 0.021646 0)
(0.616413 0.00375617 0)
(0.6179 -0.015929 0)
(0.622515 -0.0208869 0)
(0.627698 -0.00344206 0)
(0.62963 0.0248265 0)
(0.624656 0.0519635 0)
(0.610803 0.0776649 0)
(0.589972 0.0930744 0)
(0.547306 0.103893 0)
(0.493079 0.102879 0)
(0.455795 0.0586531 0)
(0.457071 0.0134856 0)
(0.47217 0.00283573 0)
(0.476412 0.0113806 0)
(0.465958 0.0218822 0)
(0.453826 0.0307777 0)
(0.441233 0.0414448 0)
(0.423162 0.0527978 0)
(0.397911 0.0630507 0)
(0.366912 0.0683414 0)
(0.330106 0.0686705 0)
(0.289644 0.0652304 0)
(0.248412 0.0620501 0)
(0.208659 0.0586106 0)
(0.175295 0.0517444 0)
(0.152336 0.0416792 0)
(0.138796 0.0321206 0)
(0.131942 0.0247162 0)
(0.129929 0.0191921 0)
(0.130773 0.0156769 0)
(0.133859 0.0146753 0)
(0.13591 0.0150343 0)
(0.131396 0.0142183 0)
(0.123289 0.0103104 0)
(0.119477 0.00385166 0)
(0.120906 -0.00243365 0)
(0.123051 -0.0068572 0)
(0.124239 -0.00962333 0)
(0.124713 -0.0105705 0)
(0.125047 -0.00855443 0)
(0.124514 -0.00428645 0)
(0.122588 0.000914912 0)
(0.119381 0.00668048 0)
(0.114864 0.0126173 0)
(0.108984 0.0174808 0)
(0.10235 0.0197154 0)
(0.0960675 0.0190806 0)
(0.0907225 0.0170865 0)
(0.086001 0.0157795 0)
(0.0811777 0.0156799 0)
(0.0758562 0.0163253 0)
(0.0700534 0.0171492 0)
(0.0640487 0.0175925 0)
(0.0582498 0.0173707 0)
(0.0529852 0.0164631 0)
(0.0484516 0.0148951 0)
(0.0447961 0.0126981 0)
(0.0421227 0.0098957 0)
(0.0404264 0.00658573 0)
(0.0395802 0.00283637 0)
(0.0394813 -0.00116917 0)
(0.0404621 -0.00510846 0)
(0.0430144 -0.00843216 0)
(0.0471435 -0.0107702 0)
(0.05225 -0.0123772 0)
(0.0574839 -0.0138465 0)
(0.0625101 -0.015233 0)
(0.0674791 -0.0159831 0)
(0.0724374 -0.0158562 0)
(0.0771453 -0.0148467 0)
(0.0811481 -0.0131767 0)
(0.084029 -0.0112278 0)
(0.0857063 -0.00934487 0)
(0.0866659 -0.0074901 0)
(0.0874934 -0.00518531 0)
(0.0883614 -0.00237756 0)
(0.0889404 0.000514179 0)
(0.0883899 0.00267775 0)
(0.0863961 0.00369316 0)
(0.0836675 0.00398283 0)
(0.0810286 0.00428821 0)
(0.0788228 0.00523427 0)
(0.0766362 0.00711886 0)
(0.0735463 0.00942641 0)
(0.0691634 0.0109591 0)
(0.0640593 0.0114336 0)
(0.059022 0.0117529 0)
(0.0545278 0.0124225 0)
(0.0505912 0.0136267 0)
(0.0465562 0.0153948 0)
(0.0414617 0.0174836 0)
(0.0344109 0.0198531 0)
(0.0254773 0.021618 0)
(0.015805 0.0225141 0)
(0.00631581 0.0229741 0)
(-0.0030075 0.0227732 0)
(-0.0122391 0.0214828 0)
(-0.0209879 0.0189681 0)
(-0.0285314 0.0155895 0)
(-0.0342768 0.0119959 0)
(-0.0383679 0.00905101 0)
(-0.0419378 0.00772496 0)
(-0.0454576 0.00835913 0)
(-0.0466889 0.0111589 0)
(-0.0427979 0.0138441 0)
(-0.0351119 0.0114475 0)
(-0.0273798 0.00566827 0)
(-0.0212129 0.00115415 0)
(-0.0155948 -0.00054224 0)
(-0.00898568 -7.08564e-05 0)
(-0.00191562 0.00248787 0)
(0.00449727 0.00781873 0)
(0.009407 0.01127 0)
(0.00761125 0.00649929 0)
(-0.00855403 -0.000177868 0)
(-0.0337028 -0.0008141 0)
(-0.0556532 0.00430963 0)
(-0.0711418 0.00845425 0)
(-0.0843147 0.00871052 0)
(-0.0983308 0.00648557 0)
(-0.115003 0.0024895 0)
(-0.133495 -0.00509554 0)
(-0.146804 -0.014582 0)
(-0.149448 -0.0215369 0)
(-0.141214 -0.0258747 0)
(-0.122804 -0.029218 0)
(-0.098309 -0.0327622 0)
(-0.0745682 -0.0368296 0)
(-0.0555358 -0.040991 0)
(-0.041361 -0.0451026 0)
(-0.0295699 -0.050205 0)
(-0.018447 -0.0566861 0)
(-0.00620296 -0.0630237 0)
(0.0105439 -0.0672762 0)
(0.0331302 -0.0682738 0)
(0.0617387 -0.0661424 0)
(0.0975864 -0.0608468 0)
(0.140385 -0.0502267 0)
(0.186786 -0.0343286 0)
(0.229256 -0.0141598 0)
(0.259197 0.0115094 0)
(0.28831 0.00981965 0)
(0.306877 -0.0265334 0)
(0.320632 -0.0774516 0)
(0.341977 -0.111813 0)
(0.359488 -0.117535 0)
(0.366387 -0.100633 0)
(0.366459 -0.0673471 0)
(0.37622 -0.0425096 0)
(0.396816 -0.0327266 0)
(0.429181 -0.0248535 0)
(0.473139 -0.0331445 0)
(0.509558 -0.0591972 0)
(0.538745 -0.0810336 0)
(0.569178 -0.0900982 0)
(0.601335 -0.0857772 0)
(0.632221 -0.0700594 0)
(0.657882 -0.0480853 0)
(0.672563 -0.0234321 0)
(0.670591 -0.00164519 0)
(0.662598 -0.0260525 0)
(0.676046 -0.0906566 0)
(0.722077 -0.135278 0)
(0.781165 -0.130677 0)
(0.824872 -0.090085 0)
(0.84252 -0.0530322 0)
(0.84773 -0.0333649 0)
(0.853849 -0.0270785 0)
(0.865216 -0.0242049 0)
(0.879252 -0.0158205 0)
(0.890943 0.00270981 0)
(0.89532 0.0317578 0)
(0.886603 0.0670859 0)
(0.860174 0.0956093 0)
(0.824119 0.107531 0)
(42.7509 0.00501938 0)
(47.6832 0.02264 0)
(31.1655 0.0356883 0)
(27.2254 0.043891 0)
(30.9396 0.0510319 0)
(33.1573 0.0589005 0)
(32.8347 0.0676115 0)
(32.0758 0.0768388 0)
(31.8886 0.0865099 0)
(32.0392 0.0967967 0)
(32.1472 0.107938 0)
(32.1391 0.120144 0)
(32.0988 0.133596 0)
(32.0794 0.148495 0)
(32.0764 0.165073 0)
(32.0723 0.183598 0)
(32.0615 0.20437 0)
(32.047 0.22772 0)
(32.0315 0.254021 0)
(32.0147 0.283689 0)
(31.9959 0.317195 0)
(31.9743 0.355067 0)
(31.9498 0.397899 0)
(31.9223 0.446362 0)
(31.8915 0.501205 0)
(31.8571 0.563272 0)
(31.8187 0.633505 0)
(31.7762 0.71296 0)
(31.7291 0.802814 0)
(31.6774 0.904377 0)
(31.6209 1.01911 0)
(31.5595 1.14864 0)
(31.4935 1.29477 0)
(31.4234 1.45954 0)
(31.3498 1.64522 0)
(31.2742 1.85439 0)
(31.1985 2.08998 0)
(31.1256 2.35538 0)
(31.0592 2.65461 0)
(31.0043 2.99252 0)
(30.9671 3.37495 0)
(30.9548 3.80888 0)
(30.975 4.30238 0)
(31.035 4.86455 0)
(31.1399 5.50503 0)
(31.2905 6.23337 0)
(31.4804 7.05815 0)
(31.6941 7.9868 0)
(31.9006 9.02387 0)
(32.0598 10.1783 0)
(32.115 11.4546 0)
(31.9958 12.8756 0)
(31.7148 14.5522 0)
(31.0728 16.3429 0)
(30.5626 19.0778 0)
(28.8326 19.4985 0)
(25.9863 19.2237 0)
(18.6786 11.2656 0)
(10.5026 2.52442 0)
(6.18626 0.345608 0)
(3.39344 0.227409 0)
(1.60412 0.756524 0)
(1.42196 0.500158 0)
(1.41509 0.23302 0)
(1.33008 0.0829237 0)
(1.12431 0.031703 0)
(0.913523 0.0407417 0)
(0.803456 0.0690293 0)
(0.760829 0.112435 0)
(0.787288 0.150575 0)
(0.848933 0.179865 0)
(0.846915 0.168323 0)
(0.847756 0.109106 0)
(0.852316 0.047994 0)
(0.849583 0.018047 0)
(0.836146 0.000413271 0)
(0.825333 -0.0156671 0)
(0.823959 -0.0209625 0)
(0.819186 -0.012741 0)
(0.805049 0.00592717 0)
(0.78775 0.0363437 0)
(0.791753 0.103273 0)
(0.917051 0.17154 0)
(0.913222 0.253478 0)
(0.81814 0.221629 0)
(0.744419 0.0825942 0)
(0.727229 -0.0594863 0)
(0.81182 -0.0169029 0)
(0.899929 0.058735 0)
(0.90214 0.0513622 0)
(0.870671 0.0278437 0)
(0.819816 0.035736 0)
(0.775221 0.0829784 0)
(0.763945 0.137078 0)
(0.759047 0.145884 0)
(0.688798 0.145103 0)
(0.560929 0.142932 0)
(0.426886 0.133888 0)
(0.301498 0.130983 0)
(0.213348 0.102118 0)
(0.157788 0.0620799 0)
(0.107918 0.0381985 0)
(0.0864373 0.0238301 0)
(0.117986 0.0152128 0)
(0.173355 0.000846253 0)
(0.217137 -0.00758733 0)
(0.251931 0.0154443 0)
(0.265189 0.0648595 0)
(0.250192 0.0388689 0)
(0.226588 0.00318668 0)
(0.207087 -0.0141419 0)
(0.200075 -0.00986445 0)
(0.203109 -0.00415309 0)
(0.199949 -0.00729982 0)
(0.190918 -0.00612994 0)
(0.18176 0.00182453 0)
(0.170664 0.00922891 0)
(0.156734 0.0153913 0)
(0.142471 0.022533 0)
(0.130419 0.0299584 0)
(0.122284 0.0327512 0)
(0.115263 0.0287845 0)
(0.107322 0.0236599 0)
(0.0993679 0.0224563 0)
(0.0891633 0.0231959 0)
(0.0748247 0.0239643 0)
(0.0571836 0.0244089 0)
(0.0371194 0.0235176 0)
(0.0152885 0.021139 0)
(-0.00618426 0.0181006 0)
(-0.0249183 0.014928 0)
(-0.0398248 0.0113572 0)
(-0.0504469 0.00769557 0)
(-0.056075 0.00470739 0)
(-0.0550864 0.00280817 0)
(-0.0461377 0.000354387 0)
(-0.031048 -0.00410996 0)
(-0.012833 -0.0104121 0)
(0.00486785 -0.0165635 0)
(0.0206145 -0.0189562 0)
(0.0385513 -0.0175209 0)
(0.062693 -0.0161887 0)
(0.0901494 -0.016483 0)
(0.114986 -0.0173472 0)
(0.133797 -0.0168786 0)
(0.146653 -0.0143944 0)
(0.155396 -0.00997523 0)
(0.162462 -0.00539896 0)
(0.16966 -0.00386382 0)
(0.173748 -0.00458258 0)
(0.17055 -0.00592933 0)
(0.158808 -0.0039207 0)
(0.146036 0.00298254 0)
(0.139726 0.0101676 0)
(0.142141 0.0141768 0)
(0.150452 0.0142676 0)
(0.159384 0.0128394 0)
(0.163102 0.0129429 0)
(0.158285 0.0165189 0)
(0.149106 0.0210402 0)
(0.142527 0.0236244 0)
(0.139951 0.0232294 0)
(0.136029 0.0204381 0)
(0.129208 0.0190877 0)
(0.119783 0.0213144 0)
(0.108536 0.0262523 0)
(0.0961394 0.0350475 0)
(0.0880982 0.0423214 0)
(0.0826382 0.0429021 0)
(0.0762569 0.0420036 0)
(0.0678011 0.0408286 0)
(0.0591867 0.0396317 0)
(0.0541315 0.0357032 0)
(0.0531773 0.0287318 0)
(0.0545066 0.0207578 0)
(0.0542511 0.015946 0)
(0.0430914 0.0184365 0)
(0.0103409 0.0158142 0)
(-0.0250602 0.00208551 0)
(-0.0173717 -0.0105835 0)
(0.0208507 -0.0131854 0)
(0.0378813 0.00392556 0)
(0.0192749 0.0137895 0)
(0.00904128 0.00631585 0)
(0.0352714 -0.000122952 0)
(0.0866222 -0.00260547 0)
(0.170476 -0.0034699 0)
(0.318525 -0.00532525 0)
(0.487456 -0.00199234 0)
(0.51983 0.0408787 0)
(0.457835 0.0428488 0)
(0.457558 0.0036243 0)
(0.563366 -0.012767 0)
(0.696804 -0.0228126 0)
(0.793058 -0.0526047 0)
(0.799572 -0.100053 0)
(0.694612 -0.132998 0)
(0.570772 -0.144619 0)
(0.48319 -0.132753 0)
(0.431984 -0.102563 0)
(0.370656 -0.0778522 0)
(0.282908 -0.0784194 0)
(0.17539 -0.0992316 0)
(0.0642572 -0.123689 0)
(-0.0295826 -0.133632 0)
(-0.123985 -0.131689 0)
(-0.213303 -0.12715 0)
(-0.321875 -0.110632 0)
(-0.433165 -0.0731736 0)
(-0.513524 -0.0530609 0)
(-0.53889 -0.0513274 0)
(-0.512906 -0.055625 0)
(-0.43795 -0.0564776 0)
(-0.327512 -0.0371627 0)
(-0.199274 -0.00972782 0)
(-0.0313373 0.00280537 0)
(0.378402 -0.141742 0)
(0.516424 -0.0635692 0)
(0.579098 -0.105389 0)
(0.586018 -0.154596 0)
(0.553517 -0.129717 0)
(0.400187 -0.0673956 0)
(0.16898 -0.050929 0)
(0.17635 -0.0350897 0)
(0.203284 -0.0366114 0)
(0.279897 -0.040457 0)
(0.535693 -0.0654829 0)
(0.689226 -0.110378 0)
(0.712922 -0.131637 0)
(0.736533 -0.142903 0)
(0.776254 -0.142513 0)
(0.834567 -0.121789 0)
(0.909927 -0.0788106 0)
(0.967289 -0.0235427 0)
(0.98562 0.0167123 0)
(0.965568 -0.0395813 0)
(0.955167 -0.165204 0)
(1.00416 -0.258482 0)
(1.07645 -0.250717 0)
(1.08066 -0.148482 0)
(1.04874 -0.0629372 0)
(1.0402 -0.0349825 0)
(1.04427 -0.0442274 0)
(1.05864 -0.0555971 0)
(1.08136 -0.0510214 0)
(1.1071 -0.0236529 0)
(1.12817 0.0210399 0)
(1.12479 0.0824454 0)
(1.08477 0.153897 0)
(1.02142 0.190158 0)
(42.7551 0.00402779 0)
(47.6896 0.0169132 0)
(31.1656 0.0257714 0)
(27.2234 0.0314794 0)
(30.9396 0.0376483 0)
(33.1593 0.0452293 0)
(32.8378 0.0536254 0)
(32.0796 0.0624017 0)
(31.8936 0.0716984 0)
(32.0458 0.081837 0)
(32.1559 0.0930438 0)
(32.1503 0.105466 0)
(32.1127 0.119266 0)
(32.0966 0.134656 0)
(32.0974 0.151886 0)
(32.0977 0.171233 0)
(32.0919 0.192999 0)
(32.0833 0.217525 0)
(32.0743 0.245196 0)
(32.0652 0.276442 0)
(32.055 0.31175 0)
(32.0433 0.351668 0)
(32.0302 0.396813 0)
(32.0156 0.447879 0)
(31.9996 0.505647 0)
(31.982 0.570995 0)
(31.9629 0.644904 0)
(31.9421 0.728473 0)
(31.9197 0.822924 0)
(31.8958 0.92961 0)
(31.8705 1.05002 0)
(31.8439 1.1858 0)
(31.8163 1.33873 0)
(31.788 1.51071 0)
(31.7594 1.70379 0)
(31.731 1.92014 0)
(31.7035 2.16201 0)
(31.6779 2.43178 0)
(31.6553 2.7319 0)
(31.6373 3.06492 0)
(31.6261 3.43365 0)
(31.6246 3.84124 0)
(31.637 4.29159 0)
(31.6689 4.7898 0)
(31.728 5.34288 0)
(31.8242 5.96068 0)
(31.9697 6.6567 0)
(32.1789 7.44923 0)
(32.468 8.3613 0)
(32.8519 9.42118 0)
(33.3504 10.6614 0)
(33.961 12.1048 0)
(34.7307 13.7976 0)
(35.5988 15.6691 0)
(36.7458 17.8644 0)
(37.9217 20.078 0)
(39.1994 22.5529 0)
(39.2057 22.9877 0)
(37.3584 21.1855 0)
(33.4793 17.9348 0)
(27.6873 13.6099 0)
(21.3816 7.30227 0)
(13.3149 1.4338 0)
(7.36425 0.405006 0)
(4.36023 0.224745 0)
(2.4241 0.0787116 0)
(0.771298 -0.00643656 0)
(0.295308 -0.0332037 0)
(0.0357435 -0.102503 0)
(-0.117845 -0.645621 0)
(0.692069 -0.108549 0)
(1.22217 0.204173 0)
(1.39099 0.0635174 0)
(1.40034 -0.0319075 0)
(1.29076 0.0740228 0)
(1.21767 0.0744245 0)
(1.14838 -0.00761961 0)
(1.06689 -0.0421761 0)
(0.956117 0.0186218 0)
(0.790479 0.118254 0)
(0.586741 0.152549 0)
(0.236179 0.366927 0)
(1.71518 -0.013267 0)
(1.92438 0.686153 0)
(1.7809 0.631335 0)
(1.76663 0.260393 0)
(1.78841 -0.200222 0)
(1.82896 -0.565214 0)
(1.89907 -0.149295 0)
(1.83126 0.0590318 0)
(1.91283 0.0842711 0)
(2.18937 0.335147 0)
(2.33801 0.210896 0)
(2.38114 -0.0143407 0)
(2.46871 0.0607572 0)
(2.03489 0.572499 0)
(1.80235 0.512626 0)
(1.40035 0.796807 0)
(0.952754 0.664467 0)
(0.679605 0.408715 0)
(0.204055 0.389466 0)
(-0.299634 0.386688 0)
(-0.369468 0.0745367 0)
(0.0673481 -0.1169 0)
(0.866417 -0.0994873 0)
(1.32936 -0.0976238 0)
(1.48485 -0.0835845 0)
(1.384 0.0423561 0)
(0.943044 0.0890322 0)
(0.677427 0.067842 0)
(0.463186 0.047277 0)
(0.446496 -0.00148558 0)
(0.521523 -0.00355228 0)
(0.508058 0.00992446 0)
(0.417795 0.0116841 0)
(0.375334 0.0105488 0)
(0.347075 0.011812 0)
(0.309277 0.016065 0)
(0.292588 0.030472 0)
(0.290938 0.0583868 0)
(0.307862 0.0468852 0)
(0.306701 0.0131129 0)
(0.277794 -0.00191192 0)
(0.29092 -0.0063933 0)
(0.321135 -0.00779472 0)
(0.311608 -0.00408702 0)
(0.264805 0.00287678 0)
(0.195437 0.00532509 0)
(0.076913 0.0119699 0)
(-0.0758549 0.0196525 0)
(-0.224426 0.0206658 0)
(-0.370178 0.0234057 0)
(-0.526749 0.033276 0)
(-0.67732 0.0413708 0)
(-0.798003 0.0469379 0)
(-0.840553 0.0564789 0)
(-0.801376 0.0676556 0)
(-0.690461 0.0761312 0)
(-0.551271 0.079031 0)
(-0.474745 0.0687475 0)
(-0.443616 0.0276984 0)
(-0.320084 -0.028955 0)
(-0.130233 -0.0454361 0)
(0.0623789 -0.0238047 0)
(0.197839 -0.00464421 0)
(0.256669 0.0115699 0)
(0.249386 0.0310691 0)
(0.23125 0.0468697 0)
(0.328193 0.0625785 0)
(0.427882 0.0836441 0)
(0.547491 0.0758328 0)
(0.502963 0.0402187 0)
(0.307649 0.0100874 0)
(0.137724 -0.00831639 0)
(0.0897475 -0.0142972 0)
(0.206861 -0.00368275 0)
(0.394942 0.015944 0)
(0.549822 0.0418502 0)
(0.580852 0.0472233 0)
(0.520216 0.0350929 0)
(0.42254 0.0219272 0)
(0.456586 0.0123998 0)
(0.519526 0.00224754 0)
(0.545715 -0.0115702 0)
(0.477243 -0.0444679 0)
(0.332141 -0.0917541 0)
(0.144059 -0.0715296 0)
(0.104552 0.0495634 0)
(0.203313 0.11672 0)
(0.266892 0.141111 0)
(0.311825 0.124989 0)
(0.229005 0.0985302 0)
(0.213202 0.0713154 0)
(0.264707 0.0453329 0)
(0.370711 0.0254759 0)
(0.509504 -0.0109669 0)
(0.750513 0.00550998 0)
(1.20612 0.0748992 0)
(1.7491 0.00175516 0)
(2.32067 -0.203493 0)
(3.02195 -0.330133 0)
(4.18539 -0.226803 0)
(5.37158 -0.0884345 0)
(6.29747 -0.195025 0)
(7.0606 -0.317103 0)
(7.40356 -0.422289 0)
(7.23325 -0.566947 0)
(6.87296 -0.680711 0)
(4.46429 -0.396104 0)
(1.87044 0.22686 0)
(2.37047 0.384986 0)
(0.487411 0.0560451 0)
(-2.1543 -0.26629 0)
(-4.00656 -0.0752659 0)
(-5.66184 0.390602 0)
(-6.88139 0.971996 0)
(-9.1834 1.38025 0)
(-11.3 1.20995 0)
(-13.2998 0.700897 0)
(-14.2409 0.407836 0)
(-14.4174 0.387065 0)
(-14.7284 0.451244 0)
(-15.1516 0.574547 0)
(-15.7646 0.783147 0)
(-17.1517 0.929345 0)
(-18.5141 0.816239 0)
(-18.8928 0.749642 0)
(-19.0112 0.681536 0)
(-18.7588 0.452092 0)
(-17.52 0.0537563 0)
(-16.0731 -0.332307 0)
(-14.5349 -0.57693 0)
(-12.6199 -0.782943 0)
(-11.1649 -1.01638 0)
(-9.59812 -1.29533 0)
(-6.54887 -1.75383 0)
(-4.9082 -1.78637 0)
(-1.17123 -0.300044 0)
(-0.105101 -0.098661 0)
(0.126587 -0.00597855 0)
(-0.16485 0.404554 0)
(-0.704199 1.20185 0)
(-1.05564 0.264328 0)
(-1.13714 -0.129129 0)
(-0.855786 -0.560726 0)
(-0.38345 -1.15244 0)
(0.368835 -1.70721 0)
(0.681127 -0.540356 0)
(0.745642 -0.268638 0)
(0.712487 -0.271467 0)
(0.702401 -0.290376 0)
(0.765308 -0.318762 0)
(0.967929 -0.322477 0)
(1.14471 -0.330521 0)
(1.49026 0.173344 0)
(1.92364 0.172219 0)
(2.04711 -0.195928 0)
(2.0253 -0.507436 0)
(1.88267 -0.551646 0)
(1.22824 0.0521074 0)
(0.967891 0.0561577 0)
(1.14861 0.00174204 0)
(1.16491 -0.0607767 0)
(1.16466 -0.0986216 0)
(1.171 -0.109606 0)
(1.19973 -0.0898836 0)
(1.31695 -0.0173642 0)
(1.39728 0.166869 0)
(1.33398 0.27947 0)