/*--------------------------------*- C++ -*----------------------------------*\
| =========                 |                                                 |
| \\      /  F ield         | OpenFOAM: The Open Source CFD Toolbox           |
|  \\    /   O peration     | Version:  2406                                  |
|   \\  /    A nd           | Website:  www.openfoam.com                      |
|    \\/     M anipulation  |                                                 |
\*---------------------------------------------------------------------------*/
FoamFile
{
    version     2.0;
    format      ascii;
    arch        "LSB;label=32;scalar=64";
    class       surfaceScalarField;
    location    "0.4";
    object      phi;
}
// * * * * * * * * * * * * * * * * * * * * * * * * * * * * * * * * * * * * * //

dimensions      [0 3 -1 0 0 0 0];

oriented        oriented;

internalField   nonuniform List<scalar> 
4335
(
5.31301e-05
1.9931e-10
5.31299e-05
2.08303e-10
5.31297e-05
1.47241e-10
5.31296e-05
7.97461e-11
5.31296e-05
5.49546e-11
5.31295e-05
1.75761e-11
5.31294e-05
-3.50427e-11
5.31293e-05
-4.95503e-11
5.31293e-05
1.26196e-13
5.31294e-05
5.9515e-12
5.31293e-05
-4.41433e-11
5.31293e-05
-2.98473e-11
5.31293e-05
9.94005e-12
5.31293e-05
1.3082e-11
5.31293e-05
-7.92472e-12
5.31293e-05
-2.03854e-11
5.31293e-05
-2.99518e-11
5.31293e-05
-2.01329e-11
5.31294e-05
2.03622e-12
5.31294e-05
9.44409e-12
5.31294e-05
-4.71749e-12
5.31294e-05
-2.82368e-11
5.31294e-05
-4.67279e-11
5.31294e-05
-4.79404e-11
5.31295e-05
-3.69061e-11
5.31295e-05
-3.03525e-11
5.31295e-05
-2.44499e-11
5.31295e-05
-1.16714e-11
5.31295e-05
-3.93592e-12
5.31295e-05
-3.92004e-12
5.31295e-05
-1.09369e-12
5.31295e-05
5.03467e-13
5.31295e-05
-7.19551e-12
5.31295e-05
-1.78804e-11
5.31295e-05
-2.1263e-11
5.31295e-05
-1.82174e-11
5.31296e-05
-1.52309e-11
5.31296e-05
-1.48938e-11
5.31297e-05
-1.88292e-11
5.31297e-05
-2.37777e-11
5.31297e-05
-2.00317e-11
5.31297e-05
-5.21834e-12
5.31297e-05
7.62395e-12
5.31297e-05
6.45739e-12
5.31297e-05
-2.25304e-12
5.31297e-05
-3.58854e-12
5.31297e-05
2.77304e-12
5.31297e-05
4.38523e-12
5.31297e-05
-4.78055e-12
5.31297e-05
-1.75953e-11
5.31297e-05
-2.55638e-11
5.31297e-05
-2.26209e-11
5.31297e-05
-8.91437e-12
5.31297e-05
5.70041e-12
5.31297e-05
9.43082e-12
5.31297e-05
-6.96198e-13
5.31297e-05
-1.18712e-11
5.31297e-05
-1.12104e-11
5.31297e-05
1.49478e-12
5.31297e-05
1.54342e-11
5.31298e-05
2.06312e-11
5.31298e-05
1.60092e-11
5.31297e-05
8.48728e-12
5.31297e-05
5.43571e-12
5.31297e-05
7.02457e-12
5.31297e-05
6.02541e-12
5.31298e-05
-2.77433e-12
5.31298e-05
-1.48825e-11
5.31298e-05
-1.8433e-11
5.31298e-05
-8.63477e-12
5.31298e-05
6.36443e-12
5.31298e-05
1.29238e-11
5.31298e-05
6.0956e-12
5.31298e-05
-5.30668e-12
5.31297e-05
-9.75185e-12
5.31297e-05
-5.26988e-12
5.31298e-05
2.27883e-13
5.31298e-05
2.20058e-13
5.31298e-05
-2.85802e-12
5.31298e-05
-1.76279e-12
5.31298e-05
5.83594e-12
5.31297e-05
1.41358e-11
5.31297e-05
1.48974e-11
5.31297e-05
6.69588e-12
5.31297e-05
-3.47567e-12
5.31297e-05
-7.09334e-12
5.31297e-05
-1.40112e-13
5.31297e-05
1.10517e-11
5.31297e-05
1.65735e-11
5.31297e-05
1.21531e-11
5.31297e-05
4.0531e-12
5.31297e-05
1.58335e-12
5.31297e-05
6.16745e-12
5.31297e-05
9.26571e-12
5.31297e-05
3.04593e-12
5.31297e-05
-9.98723e-12
5.31297e-05
-1.86689e-11
5.31297e-05
-1.43224e-11
5.31297e-05
-7.39974e-14
5.31297e-05
1.31453e-11
5.31297e-05
1.73631e-11
5.31297e-05
1.3925e-11
5.31297e-05
1.15274e-11
5.31296e-05
1.60298e-11
5.31296e-05
2.3513e-11
5.31296e-05
2.35578e-11
5.31296e-05
1.21748e-11
5.31296e-05
-2.46537e-12
5.31296e-05
-1.02477e-11
5.31296e-05
-1.05568e-11
5.31296e-05
-1.02556e-11
5.31296e-05
-1.45421e-11
5.31296e-05
-2.16352e-11
5.31296e-05
-2.59616e-11
5.31296e-05
-2.2939e-11
5.31296e-05
-1.38518e-11
5.31296e-05
-4.64265e-12
5.31297e-05
-1.30157e-12
5.31297e-05
-3.5408e-12
5.31297e-05
-4.52348e-12
5.31297e-05
1.30784e-12
5.31297e-05
1.20959e-11
5.31297e-05
2.12366e-11
5.31297e-05
2.43983e-11
5.31297e-05
2.33654e-11
5.31296e-05
2.43823e-11
5.31296e-05
3.06943e-11
5.31296e-05
3.73504e-11
5.31296e-05
3.74143e-11
5.31296e-05
3.18777e-11
5.31296e-05
2.62964e-11
5.31295e-05
2.32759e-11
5.31295e-05
2.28e-11
5.31295e-05
2.19764e-11
5.31295e-05
1.73221e-11
5.31295e-05
1.01681e-11
5.31294e-05
3.51841e-12
5.31294e-05
-5.10956e-13
5.31294e-05
-1.40681e-12
5.31295e-05
-3.78052e-12
5.31295e-05
-8.89797e-12
5.31295e-05
-1.17652e-11
5.31295e-05
-1.15019e-11
5.31295e-05
-9.89763e-12
5.31296e-05
-1.05827e-11
5.31296e-05
-1.01345e-11
5.31296e-05
-7.6083e-12
5.31296e-05
-9.36223e-12
5.31297e-05
-2.24355e-11
-2.42297e-11
0.000145011
4.14121e-10
0.00014501
4.54521e-10
0.00014501
4.21736e-10
0.00014501
2.85626e-10
0.00014501
1.77999e-10
0.00014501
1.69231e-10
0.000145009
2.1854e-10
0.000145009
2.14848e-10
0.000145009
1.17097e-10
0.000145009
6.73687e-11
0.000145009
5.95695e-11
0.000145009
6.10538e-11
0.000145009
3.27236e-11
0.000145009
4.25207e-12
0.000145009
-1.26069e-11
0.000145009
-1.12895e-11
0.000145009
-7.37527e-12
0.000145009
2.24276e-12
0.000145009
8.70412e-12
0.000145009
-1.41058e-11
0.000145009
-5.2213e-11
0.000145009
-7.51103e-11
0.000145009
-8.79014e-11
0.000145009
-9.65663e-11
0.000145009
-8.47158e-11
0.000145009
-6.26207e-11
0.000145009
-5.6712e-11
0.000145009
-5.89053e-11
0.000145009
-6.05505e-11
0.000145009
-6.3273e-11
0.000145009
-6.02031e-11
0.000145009
-4.89435e-11
0.000145009
-4.18116e-11
0.000145009
-4.37512e-11
0.000145009
-4.51901e-11
0.000145009
-3.85116e-11
0.00014501
-2.30336e-11
0.00014501
-8.70778e-13
0.00014501
2.19697e-11
0.00014501
3.60561e-11
0.00014501
3.83582e-11
0.00014501
3.96305e-11
0.00014501
4.74491e-11
0.00014501
5.25806e-11
0.00014501
4.38562e-11
0.00014501
2.69001e-11
0.00014501
1.53961e-11
0.00014501
1.26865e-11
0.00014501
1.26137e-11
0.00014501
9.98015e-12
0.00014501
3.34276e-12
0.00014501
-6.31544e-12
0.00014501
-1.43861e-11
0.00014501
-1.57759e-11
0.00014501
-1.36689e-11
0.00014501
-1.70465e-11
0.00014501
-2.71627e-11
0.00014501
-3.48212e-11
0.00014501
-3.16865e-11
0.00014501
-1.88955e-11
0.00014501
-4.27173e-12
0.00014501
3.22036e-12
0.00014501
5.92203e-13
0.00014501
-7.1965e-12
0.00014501
-1.14992e-11
0.00014501
-9.38454e-12
0.00014501
-7.57068e-12
0.00014501
-1.36321e-11
0.00014501
-2.47009e-11
0.00014501
-2.89844e-11
0.00014501
-1.84702e-11
0.00014501
5.19294e-13
0.00014501
1.19284e-11
0.00014501
7.25619e-12
0.00014501
-5.07492e-12
0.00014501
-9.31637e-12
0.00014501
1.17835e-12
0.00014501
1.85677e-11
0.00014501
3.05503e-11
0.00014501
3.21063e-11
0.00014501
2.83555e-11
0.00014501
2.64084e-11
0.00014501
2.70726e-11
0.00014501
2.53239e-11
0.00014501
1.71755e-11
0.00014501
4.54305e-12
0.00014501
-4.77932e-12
0.00014501
-4.84821e-12
0.00014501
3.03365e-12
0.00014501
9.23194e-12
0.00014501
5.56905e-12
0.00014501
-7.15834e-12
0.00014501
-1.92113e-11
0.00014501
-2.36866e-11
0.00014501
-2.35141e-11
0.00014501
-2.62423e-11
0.00014501
-3.45552e-11
0.00014501
-4.24618e-11
0.00014501
-4.12955e-11
0.00014501
-2.84697e-11
0.00014501
-1.04414e-11
0.00014501
2.75369e-12
0.00014501
6.68582e-12
0.00014501
7.28274e-12
0.00014501
1.42273e-11
0.00014501
2.80081e-11
0.00014501
3.84146e-11
0.000145009
3.74935e-11
0.000145009
2.83977e-11
0.000145009
1.96266e-11
0.000145009
1.56293e-11
0.000145009
1.39159e-11
0.000145009
9.20486e-12
0.000145009
-6.53071e-13
0.000145009
-1.22173e-11
0.000145009
-1.97244e-11
0.000145009
-2.00046e-11
0.000145009
-1.59987e-11
0.000145009
-1.39352e-11
0.00014501
-1.59106e-11
0.00014501
-1.77112e-11
0.00014501
-1.41102e-11
0.000145009
-3.94847e-12
0.000145009
8.27975e-12
0.000145009
1.57674e-11
0.000145009
1.66899e-11
0.000145009
1.80021e-11
0.000145009
2.62367e-11
0.000145009
3.72666e-11
0.000145009
4.43392e-11
0.000145009
4.57415e-11
0.000145009
4.18673e-11
0.000145009
3.63969e-11
0.000145009
3.37423e-11
0.000145009
3.15846e-11
0.000145009
2.56435e-11
0.000145009
1.58016e-11
0.000145009
4.02363e-12
0.000145009
-4.41519e-12
0.000145009
-8.3204e-12
0.000145009
-1.24183e-11
0.000145009
-1.75219e-11
0.000145009
-2.04278e-11
0.000145009
-1.8411e-11
0.000145009
-1.83113e-11
0.000145009
-2.45296e-11
0.000145009
-2.90122e-11
0.000145009
-2.99721e-11
0.000145009
-4.18139e-11
-3.66069e-11
0.000222593
6.18916e-10
0.000222593
6.70204e-10
0.000222593
5.80419e-10
0.000222593
3.869e-10
0.000222593
3.45025e-10
0.000222593
3.07675e-10
0.000222592
2.21384e-10
0.000222592
1.66316e-10
0.000222592
1.67145e-10
0.000222592
1.61099e-10
0.000222592
1.19097e-10
0.000222592
1.03218e-10
0.000222592
8.07642e-11
0.000222592
3.91633e-11
0.000222592
2.03247e-12
0.000222592
7.2195e-12
0.000222592
1.96104e-11
0.000222592
1.77075e-12
0.000222592
-2.55886e-11
0.000222592
-5.01142e-11
0.000222592
-7.89166e-11
0.000222592
-1.0026e-10
0.000222592
-1.06802e-10
0.000222592
-1.09284e-10
0.000222592
-1.03585e-10
0.000222592
-8.79191e-11
0.000222592
-8.34569e-11
0.000222592
-9.16014e-11
0.000222592
-9.38871e-11
0.000222592
-8.84679e-11
0.000222592
-8.27322e-11
0.000222592
-7.57809e-11
0.000222592
-6.77272e-11
0.000222592
-6.04092e-11
0.000222592
-5.25822e-11
0.000222592
-4.56993e-11
0.000222593
-4.06245e-11
0.000222593
-3.1639e-11
0.000222593
-1.27042e-11
0.000222593
1.26791e-11
0.000222593
3.13094e-11
0.000222593
3.64883e-11
0.000222593
3.61766e-11
0.000222593
3.83637e-11
0.000222593
3.92741e-11
0.000222593
3.35957e-11
0.000222593
2.29698e-11
0.000222593
1.24312e-11
0.000222593
5.91573e-12
0.000222593
3.44473e-12
0.000222593
1.21488e-12
0.000222593
-6.59289e-12
0.000222593
-1.98269e-11
0.000222593
-2.84773e-11
0.000222593
-2.39986e-11
0.000222593
-1.06489e-11
0.000222593
6.23875e-13
0.000222593
4.79046e-12
0.000222593
3.80835e-12
0.000222593
1.94678e-12
0.000222593
2.46022e-12
0.000222593
6.02963e-12
0.000222593
9.16596e-12
0.000222593
6.03552e-12
0.000222593
-4.38689e-12
0.000222593
-1.50928e-11
0.000222593
-1.84437e-11
0.000222593
-1.43462e-11
0.000222593
-9.04491e-12
0.000222593
-7.28813e-12
0.000222593
-6.66142e-12
0.000222593
-1.71834e-12
0.000222593
6.42392e-12
0.000222593
9.87811e-12
0.000222593
4.38541e-12
0.000222593
-4.89363e-12
0.000222593
-7.55717e-12
0.000222593
1.18116e-12
0.000222593
1.64509e-11
0.000222593
2.77505e-11
0.000222593
2.9296e-11
0.000222593
2.47056e-11
0.000222593
2.10607e-11
0.000222593
2.15515e-11
0.000222593
2.39733e-11
0.000222593
2.33809e-11
0.000222593
1.83493e-11
0.000222593
1.20767e-11
0.000222593
1.03165e-11
0.000222593
1.4679e-11
0.000222593
1.93999e-11
0.000222593
1.62e-11
0.000222593
3.52007e-12
0.000222593
-1.2343e-11
0.000222593
-2.27841e-11
0.000222593
-2.57147e-11
0.000222593
-2.59911e-11
0.000222593
-2.94433e-11
0.000222593
-3.52184e-11
0.000222593
-3.59118e-11
0.000222593
-2.60057e-11
0.000222593
-7.64953e-12
0.000222593
9.52331e-12
0.000222593
1.79615e-11
0.000222593
2.07126e-11
0.000222593
2.61168e-11
0.000222593
3.54447e-11
0.000222593
4.16244e-11
0.000222593
3.84524e-11
0.000222593
2.70459e-11
0.000222593
1.3994e-11
0.000222592
5.42163e-12
0.000222592
2.1081e-12
0.000222592
-1.29082e-13
0.000222592
-5.4183e-12
0.000222592
-1.36392e-11
0.000222592
-2.02187e-11
0.000222592
-2.03538e-11
0.000222592
-1.43896e-11
0.000222592
-6.85928e-12
0.000222592
-1.14315e-12
0.000222592
2.89834e-12
0.000222593
8.92402e-12
0.000222593
2.02213e-11
0.000222593
3.44568e-11
0.000222593
4.41176e-11
0.000222593
4.6383e-11
0.000222593
4.72449e-11
0.000222593
5.01738e-11
0.000222593
5.33328e-11
0.000222592
5.61645e-11
0.000222592
5.60345e-11
0.000222592
4.96169e-11
0.000222592
4.07965e-11
0.000222592
3.38882e-11
0.000222592
2.65641e-11
0.000222592
1.6204e-11
0.000222592
3.63304e-12
0.000222592
-6.89794e-12
0.000222592
-1.31533e-11
0.000222592
-1.77411e-11
0.000222592
-2.29599e-11
0.000222592
-2.96931e-11
0.000222592
-3.32997e-11
0.000222592
-3.00867e-11
0.000222592
-2.7498e-11
0.000222593
-2.9277e-11
0.000222593
-3.22617e-11
0.000222593
-3.59778e-11
-3.17184e-11
0.000285953
7.52195e-10
0.000285953
9.12967e-10
0.000285953
8.4678e-10
0.000285953
3.50125e-10
0.000285953
8.84577e-11
0.000285953
4.87396e-11
0.000285953
6.89658e-11
0.000285954
1.64322e-10
0.000285954
2.34903e-10
0.000285954
1.98945e-10
0.000285954
1.35622e-10
0.000285954
1.01825e-10
0.000285954
5.24259e-11
0.000285954
1.63537e-11
0.000285954
9.68832e-12
0.000285954
1.91156e-11
0.000285954
1.51455e-11
0.000285954
-1.83325e-11
0.000285954
-5.29225e-11
0.000285954
-8.13913e-11
0.000285954
-1.18099e-10
0.000285954
-1.45288e-10
0.000285954
-1.42035e-10
0.000285954
-1.32021e-10
0.000285954
-1.36542e-10
0.000285954
-1.41627e-10
0.000285954
-1.41393e-10
0.000285954
-1.41469e-10
0.000285954
-1.34478e-10
0.000285954
-1.19194e-10
0.000285954
-1.07819e-10
0.000285954
-1.02539e-10
0.000285954
-9.61222e-11
0.000285954
-8.36405e-11
0.000285954
-6.25864e-11
0.000285954
-3.76353e-11
0.000285954
-1.79119e-11
0.000285954
-5.86447e-12
0.000285954
3.9663e-12
0.000285954
1.84938e-11
0.000285955
3.5872e-11
0.000285955
4.5012e-11
0.000285955
4.14677e-11
0.000285955
3.38402e-11
0.000285955
2.95424e-11
0.000285955
3.05761e-11
0.000285955
3.38426e-11
0.000285955
3.28461e-11
0.000285955
2.43143e-11
0.000285955
1.09101e-11
0.000285955
-1.14658e-12
0.000285955
-1.20664e-11
0.000285955
-2.41246e-11
0.000285955
-3.4239e-11
0.000285955
-3.37542e-11
0.000285955
-2.14288e-11
0.000285955
-6.15877e-12
0.000285955
3.51059e-12
0.000285955
5.87857e-12
0.000285955
4.13038e-12
0.000285955
-6.14407e-13
0.000285955
-4.83604e-12
0.000285955
-5.41302e-12
0.000285955
-4.01552e-12
0.000285955
-7.16217e-12
0.000285955
-1.67313e-11
0.000285955
-2.60011e-11
0.000285955
-2.52149e-11
0.000285955
-1.28597e-11
0.000285955
1.62371e-12
0.000285955
8.31423e-12
0.000285955
7.61365e-12
0.000285955
7.21816e-12
0.000285955
1.12015e-11
0.000285955
1.59956e-11
0.000285955
1.63011e-11
0.000285955
1.23971e-11
0.000285955
9.44342e-12
0.000285955
1.32603e-11
0.000285955
2.23943e-11
0.000285955
2.93587e-11
0.000285955
2.87933e-11
0.000285955
2.27533e-11
0.000285955
1.74321e-11
0.000285955
1.60153e-11
0.000285955
1.73902e-11
0.000285955
1.84738e-11
0.000285955
1.70776e-11
0.000285955
1.36663e-11
0.000285955
1.09621e-11
0.000285955
1.08226e-11
0.000285955
1.10167e-11
0.000285955
6.037e-12
0.000285955
-6.18862e-12
0.000285955
-2.1824e-11
0.000285955
-3.41416e-11
0.000285955
-3.94534e-11
0.000285955
-4.05008e-11
0.000285955
-4.15561e-11
0.000285955
-4.30818e-11
0.000285955
-4.02326e-11
0.000285955
-2.70705e-11
0.000285955
-4.65139e-12
0.000285955
1.77254e-11
0.000285955
3.24474e-11
0.000285955
4.06939e-11
0.000285955
4.71875e-11
0.000285954
5.25461e-11
0.000285954
5.34071e-11
0.000285954
4.70504e-11
0.000285954
3.41718e-11
0.000285954
1.96123e-11
0.000285954
8.58117e-12
0.000285954
2.00489e-12
0.000285954
-3.08696e-12
0.000285954
-1.01732e-11
0.000285954
-1.94886e-11
0.000285954
-2.68497e-11
0.000285954
-2.85312e-11
0.000285954
-2.46398e-11
0.000285954
-1.73278e-11
0.000285954
-9.73953e-12
0.000285954
-3.98238e-12
0.000285954
1.58169e-12
0.000285954
1.12005e-11
0.000285954
2.39488e-11
0.000285954
3.37434e-11
0.000285954
3.92628e-11
0.000285954
4.24432e-11
0.000285954
4.36942e-11
0.000285954
4.61726e-11
0.000285954
5.03897e-11
0.000285954
4.87047e-11
0.000285954
3.84699e-11
0.000285954
2.75381e-11
0.000285954
2.06577e-11
0.000285954
1.48925e-11
0.000285954
7.17196e-12
0.000285954
-1.58193e-12
0.000285954
-9.63756e-12
0.000285954
-1.80722e-11
0.000285954
-2.55927e-11
0.000285954
-3.0437e-11
0.000285954
-3.46506e-11
0.000285954
-3.66427e-11
0.000285954
-3.40503e-11
0.000285955
-2.96903e-11
0.000285955
-2.97439e-11
0.000285955
-2.75281e-11
-2.49768e-11
0.000335158
7.19751e-10
0.000335158
8.41436e-10
0.000335158
8.77529e-10
0.000335158
5.03971e-10
0.000335158
1.34744e-10
0.000335159
1.84373e-11
0.000335159
-4.47586e-11
0.000335159
-6.85821e-11
0.000335159
-6.77026e-11
0.000335159
-7.31048e-11
0.00033516
-7.63074e-11
0.00033516
-8.47604e-11
0.00033516
-9.3605e-11
0.00033516
-6.45531e-11
0.00033516
-3.6214e-11
0.00033516
-4.13888e-11
0.00033516
-5.5524e-11
0.00033516
-7.29799e-11
0.00033516
-9.64464e-11
0.00033516
-1.21736e-10
0.00033516
-1.4996e-10
0.00033516
-1.73111e-10
0.00033516
-1.74207e-10
0.00033516
-1.64359e-10
0.000335161
-1.70773e-10
0.000335161
-1.86515e-10
0.000335161
-1.88608e-10
0.000335161
-1.77898e-10
0.000335161
-1.62768e-10
0.000335161
-1.45332e-10
0.000335161
-1.30306e-10
0.000335161
-1.18188e-10
0.000335161
-1.05491e-10
0.000335161
-9.20343e-11
0.000335161
-7.43965e-11
0.000335161
-5.09126e-11
0.000335161
-2.96162e-11
0.000335161
-1.78202e-11
0.000335161
-1.42844e-11
0.000335161
-1.07398e-11
0.000335161
-9.46332e-13
0.000335161
1.12127e-11
0.000335161
1.65542e-11
0.000335161
1.66089e-11
0.000335161
1.64585e-11
0.000335161
2.01029e-11
0.000335161
2.90089e-11
0.000335161
3.70765e-11
0.000335161
3.42067e-11
0.000335161
1.8488e-11
0.000335161
2.72932e-13
0.000335161
-8.73487e-12
0.000335161
-8.58734e-12
0.000335161
-7.85112e-12
0.000335161
-8.70573e-12
0.000335161
-6.86454e-12
0.000335161
-1.76984e-12
0.000335161
2.56684e-12
0.000335161
3.50521e-12
0.000335161
3.06039e-12
0.000335161
1.50808e-12
0.000335161
-1.74268e-12
0.000335161
-5.34143e-12
0.000335161
-6.05696e-12
0.000335161
-4.69432e-12
0.000335161
-5.67855e-12
0.000335161
-1.12588e-11
0.000335161
-1.65072e-11
0.000335161
-1.44526e-11
0.000335161
-5.21521e-12
0.000335161
2.90348e-12
0.000335161
3.6557e-12
0.000335161
2.32907e-13
0.000335161
-2.63547e-14
0.000335161
5.44939e-12
0.000335161
1.31531e-11
0.000335161
1.80544e-11
0.000335161
1.75254e-11
0.000335161
1.56689e-11
0.000335161
1.84843e-11
0.000335161
2.5964e-11
0.000335161
3.19948e-11
0.000335161
3.17118e-11
0.000335161
2.6835e-11
0.000335161
2.21195e-11
0.000335161
2.03184e-11
0.000335161
2.09833e-11
0.000335161
2.13699e-11
0.000335161
1.94125e-11
0.000335161
1.44926e-11
0.000335161
8.56544e-12
0.000335161
4.02201e-12
0.000335161
1.60033e-12
0.000335161
-1.96748e-12
0.000335161
-9.75223e-12
0.000335161
-2.13659e-11
0.000335161
-3.22165e-11
0.000335161
-3.76093e-11
0.000335161
-3.70351e-11
0.000335161
-3.45198e-11
0.000335161
-3.32602e-11
0.000335161
-2.9864e-11
0.000335161
-1.85809e-11
0.000335161
7.50981e-14
0.000335161
1.85443e-11
0.000335161
3.08404e-11
0.000335161
3.69555e-11
0.000335161
3.95283e-11
0.000335161
4.04446e-11
0.000335161
3.99174e-11
0.000335161
3.60205e-11
0.000335161
2.80317e-11
0.000335161
1.86049e-11
0.000335161
1.08398e-11
0.000335161
5.59475e-12
0.000335161
1.61293e-12
0.000335161
-3.27296e-12
0.000335161
-8.82134e-12
0.000335161
-1.30208e-11
0.000335161
-1.42796e-11
0.000335161
-1.08428e-11
0.000335161
-3.25748e-12
0.000335161
4.20462e-12
0.000335161
7.15414e-12
0.000335161
8.73401e-12
0.000335161
1.44587e-11
0.000335161
2.23144e-11
0.000335161
2.89552e-11
0.000335161
3.46007e-11
0.000335161
3.7068e-11
0.000335161
3.61865e-11
0.000335161
3.61398e-11
0.000335161
3.58799e-11
0.000335161
3.05886e-11
0.000335161
2.23366e-11
0.000335161
1.66455e-11
0.000335161
1.30197e-11
0.000335161
7.88503e-12
0.000335161
4.47279e-13
0.000335161
-7.17401e-12
0.000335161
-1.39072e-11
0.000335161
-2.00605e-11
0.000335161
-2.07078e-11
0.000335161
-1.9891e-11
0.000335161
-2.48467e-11
0.000335161
-3.33549e-11
0.000335161
-3.70838e-11
0.000335161
-3.73014e-11
0.000335161
-4.55551e-11
-4.47818e-11
0.000370263
7.02396e-10
0.000370263
8.06808e-10
0.000370263
7.09981e-10
0.000370264
4.85927e-10
0.000370264
2.00773e-10
0.000370264
-2.47789e-11
0.000370264
-1.8987e-10
0.000370264
-2.50923e-10
0.000370264
-2.77768e-10
0.000370264
-2.91435e-10
0.000370264
-2.71254e-10
0.000370265
-2.26882e-10
0.000370265
-1.79775e-10
0.000370265
-1.37459e-10
0.000370265
-1.28429e-10
0.000370265
-1.50873e-10
0.000370265
-1.59793e-10
0.000370265
-1.62749e-10
0.000370265
-1.8072e-10
0.000370265
-1.94591e-10
0.000370266
-1.98071e-10
0.000370266
-2.08167e-10
0.000370266
-2.19564e-10
0.000370266
-2.16838e-10
0.000370266
-2.10667e-10
0.000370266
-2.10986e-10
0.000370266
-2.05096e-10
0.000370266
-1.89956e-10
0.000370266
-1.75042e-10
0.000370266
-1.59807e-10
0.000370266
-1.42162e-10
0.000370266
-1.23144e-10
0.000370266
-1.02543e-10
0.000370266
-8.47624e-11
0.000370266
-7.10281e-11
0.000370266
-5.57988e-11
0.000370266
-3.90519e-11
0.000370266
-2.52219e-11
0.000370266
-1.67685e-11
0.000370266
-1.21202e-11
0.000370266
-5.862e-12
0.000370266
2.40089e-12
0.000370266
8.80048e-12
0.000370266
1.3352e-11
0.000370266
1.72284e-11
0.000370266
1.76682e-11
0.000370266
1.60753e-11
0.000370266
1.64367e-11
0.000370266
1.74798e-11
0.000370266
1.27747e-11
0.000370266
1.01717e-12
0.000370266
-8.61814e-12
0.000370266
-8.8325e-12
0.000370266
-4.58424e-12
0.000370266
-4.3173e-12
0.000370266
-7.18971e-12
0.000370266
-8.26314e-12
0.000370266
-5.92257e-12
0.000370266
-2.75364e-12
0.000370266
-4.56328e-13
0.000370266
1.04054e-12
0.000370266
5.26412e-13
0.000370266
-2.8821e-12
0.000370266
-7.40755e-12
0.000370266
-8.57752e-12
0.000370266
-4.76928e-12
0.000370266
-6.70955e-13
0.000370266
-7.34984e-13
0.000370266
-3.29488e-12
0.000370266
-2.86136e-12
0.000370266
1.34896e-12
0.000370266
4.86411e-12
0.000370266
5.12906e-12
0.000370266
4.04486e-12
0.000370266
4.60461e-12
0.000370266
8.20248e-12
0.000370266
1.363e-11
0.000370266
1.69701e-11
0.000370266
1.55253e-11
0.000370266
1.21659e-11
0.000370266
1.24708e-11
0.000370266
1.72374e-11
0.000370266
2.21247e-11
0.000370266
2.31673e-11
0.000370266
2.10026e-11
0.000370266
1.89896e-11
0.000370266
1.92462e-11
0.000370266
2.08055e-11
0.000370266
2.062e-11
0.000370266
1.66252e-11
0.000370266
8.43556e-12
0.000370266
-1.72187e-12
0.000370266
-1.05584e-11
0.000370266
-1.64615e-11
0.000370266
-2.04103e-11
0.000370266
-2.51433e-11
0.000370266
-3.17279e-11
0.000370266
-3.72832e-11
0.000370266
-3.72966e-11
0.000370266
-3.07815e-11
0.000370266
-2.25705e-11
0.000370266
-1.63881e-11
0.000370266
-9.55285e-12
0.000370266
2.13208e-12
0.000370266
1.66581e-11
0.000370266
2.83164e-11
0.000370266
3.3641e-11
0.000370266
3.3143e-11
0.000370266
2.97472e-11
0.000370266
2.6998e-11
0.000370266
2.5145e-11
0.000370266
2.10669e-11
0.000370266
1.36939e-11
0.000370266
5.26475e-12
0.000370266
-1.38341e-12
0.000370266
-5.34752e-12
0.000370266
-8.32543e-12
0.000370266
-1.13363e-11
0.000370266
-1.33261e-11
0.000370266
-1.30762e-11
0.000370266
-1.07101e-11
0.000370266
-5.6482e-12
0.000370266
1.10558e-12
0.000370266
5.3025e-12
0.000370266
6.25966e-12
0.000370266
9.16338e-12
0.000370266
1.39491e-11
0.000370266
1.75882e-11
0.000370266
2.24884e-11
0.000370266
2.76526e-11
0.000370266
2.67409e-11
0.000370266
2.04778e-11
0.000370266
1.5605e-11
0.000370266
1.27446e-11
0.000370266
8.28945e-12
0.000370266
3.99383e-12
0.000370266
1.33854e-12
0.000370266
-2.64276e-12
0.000370266
-9.80324e-12
0.000370266
-1.67868e-11
0.000370266
-1.95154e-11
0.000370266
-2.34633e-11
0.000370266
-2.80496e-11
0.000370266
-2.75359e-11
0.000370266
-2.20966e-11
0.000370266
-2.31684e-11
0.000370266
-3.48165e-11
0.000370266
-4.31191e-11
0.000370266
-6.6128e-11
-6.79593e-11
0.000391309
3.02583e-10
0.00039131
4.58448e-10
0.00039131
4.2014e-10
0.00039131
3.62534e-10
0.00039131
2.01394e-10
0.00039131
6.14994e-12
0.00039131
-1.19511e-10
0.00039131
-2.10976e-10
0.00039131
-2.97265e-10
0.00039131
-3.29415e-10
0.00039131
-3.07769e-10
0.00039131
-2.65589e-10
0.00039131
-2.45666e-10
0.00039131
-2.49983e-10
0.00039131
-2.61849e-10
0.00039131
-2.82133e-10
0.000391311
-2.8759e-10
0.000391311
-2.7785e-10
0.000391311
-2.77986e-10
0.000391311
-2.77082e-10
0.000391311
-2.59754e-10
0.000391311
-2.44972e-10
0.000391311
-2.46707e-10
0.000391311
-2.46766e-10
0.000391311
-2.33438e-10
0.000391311
-2.19805e-10
0.000391311
-2.11024e-10
0.000391311
-2.00595e-10
0.000391311
-1.8685e-10
0.000391311
-1.68358e-10
0.000391311
-1.4807e-10
0.000391311
-1.306e-10
0.000391311
-1.10297e-10
0.000391311
-8.65352e-11
0.000391311
-6.95549e-11
0.000391311
-6.16591e-11
0.000391311
-5.61548e-11
0.000391311
-4.79586e-11
0.000391311
-3.83066e-11
0.000391311
-3.13433e-11
0.000391311
-2.44209e-11
0.000391311
-1.35965e-11
0.000391311
-1.66945e-12
0.000391311
8.75646e-12
0.000391311
1.81289e-11
0.000391311
2.25677e-11
0.000391311
1.9319e-11
0.000391311
1.33564e-11
0.000391311
1.23594e-11
0.000391311
1.54329e-11
0.000391311
1.43375e-11
0.000391311
6.68727e-12
0.000391311
-2.59402e-13
0.000391311
-2.06591e-12
0.000391311
-3.13586e-12
0.000391311
-6.78543e-12
0.000391311
-9.81033e-12
0.000391311
-8.40929e-12
0.000391311
-3.19759e-12
0.000391311
1.30809e-12
0.000391311
2.75217e-12
0.000391311
2.35376e-12
0.000391311
1.16778e-12
0.000391311
-8.33145e-13
0.000391311
-1.83995e-12
0.000391311
7.77207e-13
0.000391311
6.32437e-12
0.000391311
9.40208e-12
0.000391311
6.02488e-12
0.000391311
-3.11642e-13
0.000391311
-3.16131e-12
0.000391311
-1.08218e-12
0.000391311
2.93933e-12
0.000391311
6.56068e-12
0.000391311
9.08704e-12
0.000391311
1.09183e-11
0.000391311
1.33957e-11
0.000391311
1.65706e-11
0.000391311
1.74346e-11
0.000391311
1.39437e-11
0.000391311
9.37466e-12
0.000391311
8.84486e-12
0.000391311
1.30915e-11
0.000391311
1.7887e-11
0.000391311
1.91205e-11
0.000391311
1.71976e-11
0.000391311
1.47991e-11
0.000391311
1.34107e-11
0.000391311
1.16185e-11
0.000391311
6.94716e-12
0.000391311
-2.72974e-13
0.000391311
-8.17706e-12
0.000391311
-1.48119e-11
0.000391311
-1.85817e-11
0.000391311
-1.94574e-11
0.000391311
-1.82778e-11
0.000391311
-1.70515e-11
0.000391311
-1.75735e-11
0.000391311
-1.85176e-11
0.000391311
-1.60586e-11
0.000391311
-1.01204e-11
0.000391311
-4.53298e-12
0.000391311
-1.63379e-12
0.000391311
1.78582e-12
0.000391311
8.10462e-12
0.000391311
1.52015e-11
0.000391311
2.02492e-11
0.000391311
2.15135e-11
0.000391311
1.8805e-11
0.000391311
1.45798e-11
0.000391311
1.20954e-11
0.000391311
1.10574e-11
0.000391311
8.8517e-12
0.000391311
4.74526e-12
0.000391311
6.82302e-13
0.000391311
-1.58238e-12
0.000391311
-2.64388e-12
0.000391311
-3.65238e-12
0.000391311
-3.47658e-12
0.000391311
-1.03534e-12
0.000391311
1.49933e-12
0.000391311
2.44813e-12
0.000391311
4.24072e-12
0.000391311
7.38877e-12
0.000391311
8.82587e-12
0.000391311
1.00444e-11
0.000391311
1.23097e-11
0.000391311
1.23776e-11
0.000391311
1.15488e-11
0.000391311
1.23313e-11
0.000391311
1.0569e-11
0.000391311
4.01853e-12
0.000391311
-6.94182e-13
0.000391311
-3.0849e-13
0.000391311
-2.26435e-12
0.000391311
-7.74943e-12
0.000391311
-1.10666e-11
0.000391311
-1.31343e-11
0.000391311
-1.62596e-11
0.000391311
-2.03507e-11
0.000391311
-1.99507e-11
0.000391311
-1.75736e-11
0.000391311
-2.17596e-11
0.000391311
-2.89235e-11
0.000391311
-2.83517e-11
0.000391311
-2.45247e-11
0.000391311
-3.40537e-11
0.000391311
-4.67333e-11
0.000391311
-6.32831e-11
-6.60803e-11
0.000398323
4.67979e-11
0.000398323
2.667e-11
0.000398323
-2.65164e-11
0.000398323
1.27489e-10
0.000398323
2.30915e-10
0.000398323
1.61867e-10
0.000398323
7.55613e-11
0.000398323
-3.19804e-11
0.000398323
-1.13198e-10
0.000398323
-1.43713e-10
0.000398322
-1.73302e-10
0.000398322
-2.12789e-10
0.000398322
-2.56149e-10
0.000398322
-2.9983e-10
0.000398322
-3.28101e-10
0.000398322
-3.47605e-10
0.000398322
-3.52127e-10
0.000398322
-3.33108e-10
0.000398322
-3.15697e-10
0.000398323
-3.08494e-10
0.000398323
-2.92419e-10
0.000398323
-2.68087e-10
0.000398323
-2.5497e-10
0.000398323
-2.50482e-10
0.000398323
-2.37308e-10
0.000398323
-2.19106e-10
0.000398323
-2.05528e-10
0.000398323
-1.92391e-10
0.000398323
-1.76524e-10
0.000398323
-1.58188e-10
0.000398322
-1.40273e-10
0.000398322
-1.28704e-10
0.000398322
-1.17805e-10
0.000398323
-9.95558e-11
0.000398323
-8.13102e-11
0.000398323
-7.12708e-11
0.000398323
-6.56388e-11
0.000398323
-5.63763e-11
0.000398323
-4.25231e-11
0.000398323
-3.10847e-11
0.000398323
-2.35408e-11
0.000398323
-1.38821e-11
0.000398323
-2.32246e-12
0.000398323
5.79616e-12
0.000398323
9.77949e-12
0.000398323
9.91825e-12
0.000398323
4.57463e-12
0.000398323
-4.66916e-12
0.000398323
-1.0412e-11
0.000398323
-6.75387e-12
0.000398323
1.24653e-12
0.000398323
3.15682e-12
0.000398323
-2.33196e-12
0.000398323
-7.93017e-12
0.000398323
-8.99958e-12
0.000398323
-7.19477e-12
0.000398323
-4.63384e-12
0.000398323
-1.33492e-12
0.000398323
3.20547e-12
0.000398323
6.84116e-12
0.000398323
8.02419e-12
0.000398323
7.92049e-12
0.000398323
8.66709e-12
0.000398323
9.91384e-12
0.000398323
9.7872e-12
0.000398323
8.10232e-12
0.000398323
7.05241e-12
0.000398323
6.66008e-12
0.000398323
3.18102e-12
0.000398323
-4.66947e-12
0.000398323
-1.19499e-11
0.000398323
-1.32255e-11
0.000398323
-8.50073e-12
0.000398323
-1.05191e-12
0.000398323
5.44666e-12
0.000398323
8.66658e-12
0.000398323
9.40305e-12
0.000398323
1.09032e-11
0.000398323
1.41511e-11
0.000398323
1.64874e-11
0.000398323
1.56529e-11
0.000398323
1.33185e-11
0.000398323
1.31965e-11
0.000398323
1.61535e-11
0.000398323
1.87256e-11
0.000398323
1.73917e-11
0.000398323
1.23158e-11
0.000398323
6.44745e-12
0.000398323
2.18823e-12
0.000398323
-1.03577e-12
0.000398323
-4.74724e-12
0.000398323
-9.43539e-12
0.000398323
-1.403e-11
0.000398323
-1.69376e-11
0.000398323
-1.72946e-11
0.000398323
-1.46409e-11
0.000398323
-9.68093e-12
0.000398323
-5.68446e-12
0.000398323
-5.89986e-12
0.000398323
-8.14233e-12
0.000398323
-8.08206e-12
0.000398323
-5.2615e-12
0.000398323
-3.70762e-12
0.000398323
-4.67353e-12
0.000398323
-5.61755e-12
0.000398323
-4.75498e-12
0.000398323
-1.72167e-12
0.000398323
2.63404e-12
0.000398323
5.44659e-12
0.000398323
4.48736e-12
0.000398323
2.27855e-12
0.000398323
2.69154e-12
0.000398323
5.86059e-12
0.000398323
8.37051e-12
0.000398323
8.11568e-12
0.000398323
6.96822e-12
0.000398323
7.6013e-12
0.000398323
9.90625e-12
0.000398323
1.28474e-11
0.000398323
1.64813e-11
0.000398323
1.89487e-11
0.000398323
1.69071e-11
0.000398323
1.31424e-11
0.000398323
1.26744e-11
0.000398323
1.2632e-11
0.000398323
1.01365e-11
0.000398323
7.10138e-12
0.000398323
2.59694e-12
0.000398323
-3.62444e-12
0.000398323
-8.04224e-12
0.000398323
-1.01816e-11
0.000398323
-1.36766e-11
0.000398323
-1.79205e-11
0.000398323
-1.87981e-11
0.000398323
-2.02637e-11
0.000398323
-2.49511e-11
0.000398323
-2.60542e-11
0.000398323
-2.25726e-11
0.000398323
-2.02256e-11
0.000398323
-2.25759e-11
0.000398323
-2.2576e-11
0.000398323
-1.46395e-11
0.000398323
-8.87813e-12
0.000398323
-1.42366e-11
0.000398323
-2.5062e-11
0.000398323
-2.42239e-11
0.000398323
-2.23778e-11
0.000398323