/*--------------------------------*- C++ -*----------------------------------*\
| =========                 |                                                 |
| \\      /  F ield         | OpenFOAM: The Open Source CFD Toolbox           |
|  \\    /   O peration     | Version:  2406                                  |
|   \\  /    A nd           | Website:  www.openfoam.com                      |
|    \\/     M anipulation  |                                                 |
\*---------------------------------------------------------------------------*/
FoamFile
{
    version     2.0;
    format      ascii;
    arch        "LSB;label=32;scalar=64";
    class       volVectorField;
    location    "0.4";
    object      U;
}
// * * * * * * * * * * * * * * * * * * * * * * * * * * * * * * * * * * * * * //

dimensions      [0 1 -1 0 0 0 0];

internalField   nonuniform List<vector> 
2250
(
(0.796953 1.46578e-06 0)
(0.796949 1.4401e-06 0)
(0.796947 9.45474e-07 0)
(0.796945 4.31498e-07 0)
(0.796944 1.87629e-07 0)
(0.796943 -1.31741e-07 0)
(0.796942 -5.65418e-07 0)
(0.796941 -6.49057e-07 0)
(0.79694 -2.94524e-07 0)
(0.796941 -1.42746e-07 0)
(0.79694 -4.22107e-07 0)
(0.796939 -3.19102e-07 0)
(0.796939 -3.17605e-08 0)
(0.79694 -2.01901e-08 0)
(0.796939 -1.64e-07 0)
(0.796939 -2.02852e-07 0)
(0.796939 -2.0754e-07 0)
(0.796939 -1.26561e-07 0)
(0.79694 1.99082e-08 0)
(0.796941 6.88366e-08 0)
(0.796941 -3.83788e-08 0)
(0.796941 -2.3472e-07 0)
(0.796941 -3.89785e-07 0)
(0.796942 -3.78137e-07 0)
(0.796942 -2.54071e-07 0)
(0.796942 -1.8793e-07 0)
(0.796943 -1.52271e-07 0)
(0.796943 -6.32142e-08 0)
(0.796943 -1.06759e-08 0)
(0.796943 -1.99477e-08 0)
(0.796943 -8.42396e-09 0)
(0.796943 3.38068e-09 0)
(0.796943 -3.95114e-08 0)
(0.796943 -9.21248e-08 0)
(0.796943 -1.10048e-07 0)
(0.796943 -1.08525e-07 0)
(0.796943 -1.00299e-07 0)
(0.796944 -9.51668e-08 0)
(0.796945 -1.12971e-07 0)
(0.796945 -1.47709e-07 0)
(0.796945 -1.40577e-07 0)
(0.796945 -5.77696e-08 0)
(0.796945 1.87476e-08 0)
(0.796946 8.18936e-09 0)
(0.796946 -2.78498e-08 0)
(0.796945 -2.59716e-09 0)
(0.796945 4.85098e-08 0)
(0.796945 4.1592e-08 0)
(0.796945 -3.10913e-08 0)
(0.796945 -1.1646e-07 0)
(0.796945 -1.66934e-07 0)
(0.796945 -1.57772e-07 0)
(0.796946 -7.68535e-08 0)
(0.796946 2.75338e-08 0)
(0.796946 5.33913e-08 0)
(0.796946 -2.07685e-08 0)
(0.796946 -1.04151e-07 0)
(0.796946 -1.02157e-07 0)
(0.796946 -1.52981e-08 0)
(0.796946 8.52629e-08 0)
(0.796946 1.39785e-07 0)
(0.796946 1.38189e-07 0)
(0.796946 1.05293e-07 0)
(0.796946 7.16206e-08 0)
(0.796946 4.31371e-08 0)
(0.796946 -3.21643e-09 0)
(0.796946 -7.888e-08 0)
(0.796946 -1.47662e-07 0)
(0.796946 -1.56301e-07 0)
(0.796946 -8.55023e-08 0)
(0.796946 1.95754e-08 0)
(0.796946 8.04271e-08 0)
(0.796946 5.9764e-08 0)
(0.796946 -1.82409e-09 0)
(0.796946 -3.70037e-08 0)
(0.796946 -2.58075e-08 0)
(0.796946 2.23031e-09 0)
(0.796947 1.61732e-08 0)
(0.796947 2.02135e-08 0)
(0.796947 3.87828e-08 0)
(0.796946 7.85726e-08 0)
(0.796946 1.10556e-07 0)
(0.796946 9.75284e-08 0)
(0.796946 3.43707e-08 0)
(0.796946 -3.76928e-08 0)
(0.796946 -6.16392e-08 0)
(0.796946 -1.83934e-08 0)
(0.796946 5.70352e-08 0)
(0.796946 9.9324e-08 0)
(0.796946 7.88635e-08 0)
(0.796946 3.33696e-08 0)
(0.796945 1.67169e-08 0)
(0.796945 3.06966e-08 0)
(0.796945 2.66896e-08 0)
(0.796945 -2.95645e-08 0)
(0.796945 -1.10569e-07 0)
(0.796946 -1.50829e-07 0)
(0.796946 -1.14012e-07 0)
(0.796946 -2.22422e-08 0)
(0.796946 7.16887e-08 0)
(0.796946 1.27744e-07 0)
(0.796945 1.41092e-07 0)
(0.796945 1.39741e-07 0)
(0.796945 1.59018e-07 0)
(0.796944 1.89143e-07 0)
(0.796944 1.75732e-07 0)
(0.796944 9.50446e-08 0)
(0.796944 -5.73419e-09 0)
(0.796944 -6.91719e-08 0)
(0.796944 -9.30484e-08 0)
(0.796944 -1.12425e-07 0)
(0.796944 -1.4919e-07 0)
(0.796944 -1.92861e-07 0)
(0.796944 -2.11578e-07 0)
(0.796944 -1.83548e-07 0)
(0.796944 -1.15347e-07 0)
(0.796945 -4.30083e-08 0)
(0.796945 -5.63872e-09 0)
(0.796945 -4.67024e-09 0)
(0.796945 -3.24436e-10 0)
(0.796945 4.1334e-08 0)
(0.796945 1.10434e-07 0)
(0.796945 1.72261e-07 0)
(0.796945 2.06203e-07 0)
(0.796945 2.17671e-07 0)
(0.796945 2.3241e-07 0)
(0.796944 2.68955e-07 0)
(0.796944 2.98004e-07 0)
(0.796944 2.84412e-07 0)
(0.796944 2.46474e-07 0)
(0.796943 2.10691e-07 0)
(0.796943 1.79193e-07 0)
(0.796943 1.5545e-07 0)
(0.796942 1.35039e-07 0)
(0.796942 1.01825e-07 0)
(0.796942 5.59687e-08 0)
(0.796942 1.41882e-08 0)
(0.796942 -6.42398e-09 0)
(0.796942 -7.61544e-09 0)
(0.796942 -2.36819e-08 0)
(0.796942 -6.07142e-08 0)
(0.796942 -8.29681e-08 0)
(0.796943 -7.36511e-08 0)
(0.796943 -5.4613e-08 0)
(0.796943 -5.87662e-08 0)
(0.796944 -6.14201e-08 0)
(0.796944 -5.39756e-08 0)
(0.796944 -7.43144e-08 0)
(0.796944 -1.74868e-07 0)
(0.796946 -1.93592e-07 0)
(2.17516 4.67436e-06 0)
(2.17516 4.98079e-06 0)
(2.17515 4.17379e-06 0)
(2.17515 2.67193e-06 0)
(2.17515 1.74222e-06 0)
(2.17515 1.37046e-06 0)
(2.17514 1.13762e-06 0)
(2.17514 9.46891e-07 0)
(2.17514 6.29547e-07 0)
(2.17514 2.6324e-07 0)
(2.17514 -1.58754e-07 0)
(2.17514 1.81979e-08 0)
(2.17514 1.9817e-07 0)
(2.17514 1.60453e-08 0)
(2.17513 -2.96143e-07 0)
(2.17513 -3.57978e-07 0)
(2.17513 -3.47981e-07 0)
(2.17514 -1.72559e-07 0)
(2.17514 7.71002e-08 0)
(2.17514 -7.0925e-09 0)
(2.17514 -3.94712e-07 0)
(2.17514 -7.64969e-07 0)
(2.17514 -1.03364e-06 0)
(2.17514 -1.12739e-06 0)
(2.17514 -9.24866e-07 0)
(2.17514 -6.68441e-07 0)
(2.17514 -5.56884e-07 0)
(2.17514 -4.7333e-07 0)
(2.17514 -4.21397e-07 0)
(2.17514 -4.46919e-07 0)
(2.17514 -4.21388e-07 0)
(2.17514 -3.41045e-07 0)
(2.17514 -3.55924e-07 0)
(2.17514 -4.44646e-07 0)
(2.17514 -4.68484e-07 0)
(2.17514 -3.97605e-07 0)
(2.17514 -2.64939e-07 0)
(2.17514 -9.92497e-08 0)
(2.17514 4.62085e-08 0)
(2.17514 1.21607e-07 0)
(2.17514 1.65909e-07 0)
(2.17514 2.79891e-07 0)
(2.17514 4.24208e-07 0)
(2.17514 4.21284e-07 0)
(2.17515 2.64485e-07 0)
(2.17514 1.45382e-07 0)
(2.17514 1.3959e-07 0)
(2.17514 1.32064e-07 0)
(2.17514 3.7184e-08 0)
(2.17514 -9.65209e-08 0)
(2.17514 -1.89806e-07 0)
(2.17514 -2.19144e-07 0)
(2.17515 -1.68889e-07 0)
(2.17515 -5.923e-08 0)
(2.17515 -1.63637e-08 0)
(2.17515 -1.32164e-07 0)
(2.17515 -3.11978e-07 0)
(2.17515 -3.71712e-07 0)
(2.17515 -2.46929e-07 0)
(2.17515 -3.91605e-08 0)
(2.17515 1.06251e-07 0)
(2.17515 1.30391e-07 0)
(2.17515 7.49788e-08 0)
(2.17515 1.86439e-08 0)
(2.17515 3.04865e-10 0)
(2.17515 -2.17124e-08 0)
(2.17515 -1.13154e-07 0)
(2.17515 -2.5855e-07 0)
(2.17515 -3.51881e-07 0)
(2.17515 -2.92616e-07 0)
(2.17515 -9.73134e-08 0)
(2.17515 8.87443e-08 0)
(2.17515 1.22508e-07 0)
(2.17515 1.37089e-08 0)
(2.17515 -9.28291e-08 0)
(2.17515 -8.43998e-08 0)
(2.17515 2.39365e-08 0)
(2.17515 1.4338e-07 0)
(2.17515 2.17191e-07 0)
(2.17515 2.57414e-07 0)
(2.17515 3.00174e-07 0)
(2.17515 3.41968e-07 0)
(2.17515 3.33152e-07 0)
(2.17515 2.37504e-07 0)
(2.17515 8.82679e-08 0)
(2.17515 -2.69439e-08 0)
(2.17515 -3.75007e-08 0)
(2.17515 5.094e-08 0)
(2.17514 1.45071e-07 0)
(2.17514 1.4577e-07 0)
(2.17514 4.91573e-08 0)
(2.17514 -5.42828e-08 0)
(2.17514 -9.81387e-08 0)
(2.17514 -1.16964e-07 0)
(2.17514 -1.89741e-07 0)
(2.17514 -3.27875e-07 0)
(2.17514 -4.43709e-07 0)
(2.17514 -4.39028e-07 0)
(2.17514 -3.01302e-07 0)
(2.17514 -1.0385e-07 0)
(2.17514 6.41504e-08 0)
(2.17514 1.56105e-07 0)
(2.17514 1.91012e-07 0)
(2.17514 2.39788e-07 0)
(2.17514 3.38404e-07 0)
(2.17514 4.18192e-07 0)
(2.17514 3.85336e-07 0)
(2.17514 2.53912e-07 0)
(2.17514 1.24823e-07 0)
(2.17514 5.37699e-08 0)
(2.17514 1.13275e-08 0)
(2.17514 -5.35813e-08 0)
(2.17514 -1.56169e-07 0)
(2.17514 -2.59492e-07 0)
(2.17514 -3.09611e-07 0)
(2.17514 -2.81682e-07 0)
(2.17514 -2.02728e-07 0)
(2.17514 -1.38638e-07 0)
(2.17514 -1.28775e-07 0)
(2.17514 -1.34179e-07 0)
(2.17514 -8.65013e-08 0)
(2.17514 3.17848e-08 0)
(2.17514 1.76002e-07 0)
(2.17514 2.87747e-07 0)
(2.17514 3.41878e-07 0)
(2.17514 3.69304e-07 0)
(2.17514 4.37751e-07 0)
(2.17514 5.46499e-07 0)
(2.17514 6.10935e-07 0)
(2.17514 6.06651e-07 0)
(2.17514 5.7454e-07 0)
(2.17514 5.25293e-07 0)
(2.17514 4.71011e-07 0)
(2.17514 4.23841e-07 0)
(2.17514 3.54877e-07 0)
(2.17514 2.47698e-07 0)
(2.17514 1.17029e-07 0)
(2.17514 4.32553e-11 0)
(2.17514 -6.02473e-08 0)
(2.17514 -1.03175e-07 0)
(2.17514 -1.74331e-07 0)
(2.17514 -2.39357e-07 0)
(2.17514 -2.55698e-07 0)
(2.17514 -2.15047e-07 0)
(2.17514 -2.07476e-07 0)
(2.17514 -2.49656e-07 0)
(2.17514 -2.73363e-07 0)
(2.17514 -3.09373e-07 0)
(2.17514 -5.22718e-07 0)
(2.17514 -4.90929e-07 0)
(3.3389 7.99976e-06 0)
(3.3389 8.63396e-06 0)
(3.33889 7.70334e-06 0)
(3.33889 5.30496e-06 0)
(3.33889 4.32524e-06 0)
(3.33889 4.12713e-06 0)
(3.33889 3.91515e-06 0)
(3.33889 3.31988e-06 0)
(3.33888 2.47448e-06 0)
(3.33888 1.95332e-06 0)
(3.33888 1.5342e-06 0)
(3.33888 1.35689e-06 0)
(3.33888 8.52667e-07 0)
(3.33888 2.94606e-07 0)
(3.33888 -5.33854e-08 0)
(3.33888 -2.00511e-08 0)
(3.33888 5.23095e-08 0)
(3.33888 -2.74513e-08 0)
(3.33888 -1.89853e-07 0)
(3.33888 -5.66498e-07 0)
(3.33888 -1.08252e-06 0)
(3.33888 -1.40108e-06 0)
(3.33888 -1.49233e-06 0)
(3.33888 -1.5133e-06 0)
(3.33888 -1.34776e-06 0)
(3.33888 -1.05901e-06 0)
(3.33888 -9.79229e-07 0)
(3.33888 -1.07728e-06 0)
(3.33888 -1.11855e-06 0)
(3.33888 -1.08916e-06 0)
(3.33889 -1.00324e-06 0)
(3.33889 -8.53615e-07 0)
(3.33889 -7.54057e-07 0)
(3.33889 -7.49245e-07 0)
(3.33889 -7.26164e-07 0)
(3.33889 -6.24416e-07 0)
(3.33889 -4.6342e-07 0)
(3.33889 -2.32663e-07 0)
(3.33889 7.06051e-08 0)
(3.33889 3.63068e-07 0)
(3.33889 5.30601e-07 0)
(3.33889 5.94889e-07 0)
(3.33889 6.71424e-07 0)
(3.33889 7.24733e-07 0)
(3.33889 6.27893e-07 0)
(3.33889 4.25231e-07 0)
(3.33889 2.66664e-07 0)
(3.33889 1.9446e-07 0)
(3.33889 1.44675e-07 0)
(3.33889 7.75886e-08 0)
(3.33889 -5.13281e-09 0)
(3.33889 -1.21775e-07 0)
(3.33889 -2.57579e-07 0)
(3.33889 -3.1867e-07 0)
(3.33889 -2.61884e-07 0)
(3.33889 -1.84838e-07 0)
(3.33889 -1.82953e-07 0)
(3.33889 -2.25768e-07 0)
(3.33889 -2.1968e-07 0)
(3.33889 -1.29645e-07 0)
(3.33889 -1.14019e-08 0)
(3.33889 6.21923e-08 0)
(3.33889 5.71553e-08 0)
(3.33889 -1.45914e-08 0)
(3.33889 -1.01734e-07 0)
(3.33889 -1.55416e-07 0)
(3.33889 -1.83006e-07 0)
(3.33889 -2.241e-07 0)
(3.33889 -2.774e-07 0)
(3.33889 -2.82212e-07 0)
(3.33889 -1.77207e-07 0)
(3.33889 6.53173e-09 0)
(3.33889 1.35794e-07 0)
(3.33889 1.09035e-07 0)
(3.33889 -2.12157e-08 0)
(3.33889 -9.9879e-08 0)
(3.33889 -2.74983e-08 0)
(3.33889 1.6083e-07 0)
(3.33889 3.48105e-07 0)
(3.33889 4.42607e-07 0)
(3.33889 4.42218e-07 0)
(3.33889 4.08997e-07 0)
(3.33889 3.89359e-07 0)
(3.33889 3.70811e-07 0)
(3.33889 3.11876e-07 0)
(3.33889 2.05456e-07 0)
(3.33889 9.85032e-08 0)
(3.33889 6.14121e-08 0)
(3.33889 1.13917e-07 0)
(3.33889 1.84436e-07 0)
(3.33889 1.66778e-07 0)
(3.33889 3.13495e-08 0)
(3.33889 -1.49472e-07 0)
(3.33889 -2.84278e-07 0)
(3.33889 -3.55621e-07 0)
(3.33889 -4.1616e-07 0)
(3.33889 -5.03513e-07 0)
(3.33889 -5.82464e-07 0)
(3.33889 -5.81046e-07 0)
(3.33889 -4.606e-07 0)
(3.33889 -2.44579e-07 0)
(3.33889 -1.21516e-08 0)
(3.33889 1.50442e-07 0)
(3.33889 2.33351e-07 0)
(3.33889 3.17736e-07 0)
(3.33889 4.57258e-07 0)
(3.33889 5.8552e-07 0)
(3.33889 6.00972e-07 0)
(3.33889 4.95861e-07 0)
(3.33889 3.45475e-07 0)
(3.33889 2.19107e-07 0)
(3.33889 1.3269e-07 0)
(3.33889 5.4059e-08 0)
(3.33889 -5.12953e-08 0)
(3.33889 -1.7884e-07 0)
(3.33889 -2.87483e-07 0)
(3.33889 -3.27514e-07 0)
(3.33889 -2.91615e-07 0)
(3.33889 -2.29543e-07 0)
(3.33889 -1.83221e-07 0)
(3.33889 -1.40026e-07 0)
(3.33889 -5.90228e-08 0)
(3.33889 8.25467e-08 0)
(3.33889 2.64107e-07 0)
(3.33889 4.21703e-07 0)
(3.33889 4.97981e-07 0)
(3.33889 5.32884e-07 0)
(3.33889 6.13273e-07 0)
(3.33889 7.20556e-07 0)
(3.33889 7.86136e-07 0)
(3.33889 8.04209e-07 0)
(3.33889 7.71629e-07 0)
(3.33889 6.88236e-07 0)
(3.33889 5.98314e-07 0)
(3.33889 5.14063e-07 0)
(3.33889 4.01982e-07 0)
(3.33889 2.42317e-07 0)
(3.33889 5.26922e-08 0)
(3.33889 -9.74015e-08 0)
(3.33889 -1.78008e-07 0)
(3.33889 -2.43001e-07 0)
(3.33889 -3.19362e-07 0)
(3.33889 -3.95014e-07 0)
(3.33889 -4.11076e-07 0)
(3.33889 -3.78354e-07 0)
(3.33889 -3.94071e-07 0)
(3.33889 -4.35317e-07 0)
(3.33889 -4.6039e-07 0)
(3.33889 -5.81884e-07 0)
(3.33889 -5.46378e-07 0)
(4.2893 1.0556e-05 0)
(4.2893 1.22696e-05 0)
(4.2893 1.10013e-05 0)
(4.2893 5.78934e-06 0)
(4.2893 3.58069e-06 0)
(4.2893 3.14091e-06 0)
(4.2893 2.82901e-06 0)
(4.2893 3.16404e-06 0)
(4.2893 3.7801e-06 0)
(4.28931 3.46449e-06 0)
(4.28931 2.46031e-06 0)
(4.28931 1.93503e-06 0)
(4.28931 1.35551e-06 0)
(4.28931 7.10212e-07 0)
(4.28931 3.12215e-07 0)
(4.28931 3.61873e-07 0)
(4.28931 3.51265e-07 0)
(4.28931 -9.24133e-08 0)
(4.28931 -5.85543e-07 0)
(4.28931 -1.01813e-06 0)
(4.28931 -1.54455e-06 0)
(4.28931 -1.90091e-06 0)
(4.28931 -1.87809e-06 0)
(4.28931 -1.78713e-06 0)
(4.28931 -1.77002e-06 0)
(4.28931 -1.68688e-06 0)
(4.28931 -1.65438e-06 0)
(4.28931 -1.73386e-06 0)
(4.28931 -1.71084e-06 0)
(4.28931 -1.55254e-06 0)
(4.28931 -1.41244e-06 0)
(4.28931 -1.30311e-06 0)
(4.28931 -1.18052e-06 0)
(4.28931 -1.03808e-06 0)
(4.28931 -8.40146e-07 0)
(4.28931 -6.13722e-07 0)
(4.28932 -4.35132e-07 0)
(4.28932 -2.88225e-07 0)
(4.28932 -8.56671e-08 0)
(4.28932 2.0745e-07 0)
(4.28932 4.76e-07 0)
(4.28932 5.81248e-07 0)
(4.28932 5.72721e-07 0)
(4.28932 5.68253e-07 0)
(4.28932 5.57535e-07 0)
(4.28932 4.98539e-07 0)
(4.28932 4.19595e-07 0)
(4.28932 3.4826e-07 0)
(4.28932 2.59273e-07 0)
(4.28932 1.30857e-07 0)
(4.28932 -1.86085e-08 0)
(4.28932 -1.7879e-07 0)
(4.28932 -3.57749e-07 0)
(4.28932 -4.84572e-07 0)
(4.28932 -4.42813e-07 0)
(4.28932 -2.45571e-07 0)
(4.28932 -3.71082e-08 0)
(4.28932 6.95059e-08 0)
(4.28932 7.82248e-08 0)
(4.28932 5.30276e-08 0)
(4.28932 4.02027e-08 0)
(4.28932 4.67857e-08 0)
(4.28932 5.33668e-08 0)
(4.28932 1.70916e-08 0)
(4.28932 -9.3743e-08 0)
(4.28932 -2.39158e-07 0)
(4.28932 -3.27093e-07 0)
(4.28932 -3.00862e-07 0)
(4.28932 -1.89749e-07 0)
(4.28932 -7.5375e-08 0)
(4.28932 -9.27996e-10 0)
(4.28932 6.18087e-08 0)
(4.28932 1.34849e-07 0)
(4.28932 1.78352e-07 0)
(4.28932 1.4859e-07 0)
(4.28932 7.26713e-08 0)
(4.28932 3.0259e-08 0)
(4.28932 8.25431e-08 0)
(4.28932 2.18644e-07 0)
(4.28932 3.59912e-07 0)
(4.28932 4.24886e-07 0)
(4.28932 4.00736e-07 0)
(4.28932 3.45077e-07 0)
(4.28932 3.14137e-07 0)
(4.28932 3.12652e-07 0)
(4.28932 3.07958e-07 0)
(4.28932 2.7129e-07 0)
(4.28932 2.12066e-07 0)
(4.28932 1.80046e-07 0)
(4.28932 2.06556e-07 0)
(4.28932 2.47106e-07 0)
(4.28932 2.11895e-07 0)
(4.28932 6.24458e-08 0)
(4.28932 -1.46492e-07 0)
(4.28932 -3.24396e-07 0)
(4.28932 -4.32329e-07 0)
(4.28932 -5.0009e-07 0)
(4.28932 -5.63409e-07 0)
(4.28932 -6.15282e-07 0)
(4.28932 -6.11108e-07 0)
(4.28932 -4.96165e-07 0)
(4.28932 -2.57573e-07 0)
(4.28932 3.29469e-08 0)
(4.28932 2.67603e-07 0)
(4.28932 4.15417e-07 0)
(4.28932 5.37051e-07 0)
(4.28932 6.66074e-07 0)
(4.28932 7.46671e-07 0)
(4.28932 7.13127e-07 0)
(4.28932 5.66727e-07 0)
(4.28932 3.69054e-07 0)
(4.28932 1.96102e-07 0)
(4.28932 8.28527e-08 0)
(4.28932 5.88112e-09 0)
(4.28932 -8.04308e-08 0)
(4.28932 -1.99265e-07 0)
(4.28932 -3.17841e-07 0)
(4.28932 -3.71036e-07 0)
(4.28932 -3.38031e-07 0)
(4.28932 -2.55227e-07 0)
(4.28932 -1.6279e-07 0)
(4.28932 -7.16585e-08 0)
(4.28932 3.30054e-08 0)
(4.28932 1.78008e-07 0)
(4.28932 3.65151e-07 0)
(4.28932 5.28863e-07 0)
(4.28932 6.15496e-07 0)
(4.28932 6.74213e-07 0)
(4.28932 7.39422e-07 0)
(4.28932 7.80754e-07 0)
(4.28932 8.09896e-07 0)
(4.28932 8.24672e-07 0)
(4.28932 7.64155e-07 0)
(4.28932 6.34998e-07 0)
(4.28932 5.05198e-07 0)
(4.28932 3.91023e-07 0)
(4.28932 2.63329e-07 0)
(4.28932 1.07329e-07 0)
(4.28932 -4.28327e-08 0)
(4.28932 -1.55405e-07 0)
(4.28932 -2.5917e-07 0)
(4.28932 -3.60456e-07 0)
(4.28932 -4.55086e-07 0)
(4.28932 -5.22212e-07 0)
(4.28932 -5.23696e-07 0)
(4.28932 -4.8516e-07 0)
(4.28932 -4.52081e-07 0)
(4.28932 -4.57067e-07 0)
(4.28932 -4.45469e-07 0)
(4.28932 -3.84992e-07 0)
(5.02737 1.15596e-05 0)
(5.02737 1.36118e-05 0)
(5.02738 1.33939e-05 0)
(5.02737 6.47143e-06 0)
(5.02737 1.47593e-06 0)
(5.02738 2.25433e-07 0)
(5.02738 9.35305e-08 0)
(5.02738 9.86319e-07 0)
(5.02739 1.60331e-06 0)
(5.02739 1.25781e-06 0)
(5.02739 8.54153e-07 0)
(5.0274 6.41754e-07 0)
(5.0274 1.90915e-07 0)
(5.0274 1.6358e-08 0)
(5.0274 4.12037e-08 0)
(5.0274 3.49276e-08 0)
(5.0274 -1.06852e-07 0)
(5.0274 -5.56889e-07 0)
(5.0274 -1.07268e-06 0)
(5.0274 -1.48814e-06 0)
(5.0274 -1.95119e-06 0)
(5.0274 -2.32762e-06 0)
(5.02741 -2.33493e-06 0)
(5.02741 -2.21405e-06 0)
(5.02741 -2.32444e-06 0)
(5.02741 -2.50056e-06 0)
(5.02741 -2.51904e-06 0)
(5.02741 -2.4353e-06 0)
(5.02741 -2.25982e-06 0)
(5.02741 -1.99927e-06 0)
(5.02741 -1.79691e-06 0)
(5.02741 -1.67338e-06 0)
(5.02741 -1.5277e-06 0)
(5.02741 -1.32648e-06 0)
(5.02741 -1.04107e-06 0)
(5.02741 -6.88622e-07 0)
(5.02741 -3.85472e-07 0)
(5.02741 -2.02899e-07 0)
(5.02741 -9.76698e-08 0)
(5.02741 4.64227e-08 0)
(5.02741 2.65445e-07 0)
(5.02741 4.18699e-07 0)
(5.02741 4.22587e-07 0)
(5.02742 3.76438e-07 0)
(5.02742 3.7713e-07 0)
(5.02742 4.25885e-07 0)
(5.02742 4.87607e-07 0)
(5.02742 5.09026e-07 0)
(5.02742 4.32992e-07 0)
(5.02742 2.44361e-07 0)
(5.02742 1.1816e-08 0)
(5.02742 -1.65796e-07 0)
(5.02742 -2.76501e-07 0)
(5.02742 -3.49462e-07 0)
(5.02742 -3.49187e-07 0)
(5.02742 -2.38111e-07 0)
(5.02742 -7.16746e-08 0)
(5.02742 5.22901e-08 0)
(5.02742 8.91345e-08 0)
(5.02742 6.03691e-08 0)
(5.02742 1.038e-08 0)
(5.02742 -3.4984e-08 0)
(5.02742 -5.89923e-08 0)
(5.02742 -6.85434e-08 0)
(5.02742 -1.06344e-07 0)
(5.02742 -1.98925e-07 0)
(5.02742 -2.9772e-07 0)
(5.02742 -3.10036e-07 0)
(5.02742 -1.95815e-07 0)
(5.02742 -2.87209e-08 0)
(5.02742 7.31164e-08 0)
(5.02742 8.29482e-08 0)
(5.02742 7.62345e-08 0)
(5.02742 1.1202e-07 0)
(5.02742 1.71195e-07 0)
(5.02742 2.03481e-07 0)
(5.02742 1.91642e-07 0)
(5.02742 1.74434e-07 0)
(5.02742 2.09093e-07 0)
(5.02742 3.07156e-07 0)
(5.02742 4.09905e-07 0)
(5.02742 4.46368e-07 0)
(5.02742 4.06605e-07 0)
(5.02742 3.40033e-07 0)
(5.02742 2.9737e-07 0)
(5.02742 2.90816e-07 0)
(5.02742 2.98013e-07 0)
(5.02742 2.8391e-07 0)
(5.02742 2.38146e-07 0)
(5.02742 1.90862e-07 0)
(5.02742 1.69035e-07 0)
(5.02742 1.50726e-07 0)
(5.02742 8.33019e-08 0)
(5.02742 -5.86528e-08 0)
(5.02742 -2.41363e-07 0)
(5.02742 -4.05102e-07 0)
(5.02741 -5.18837e-07 0)
(5.02741 -5.85652e-07 0)
(5.02741 -6.20096e-07 0)
(5.02741 -6.26965e-07 0)
(5.02741 -5.83527e-07 0)
(5.02741 -4.41061e-07 0)
(5.02741 -1.83676e-07 0)
(5.02741 1.18426e-07 0)
(5.02741 3.66533e-07 0)
(5.02741 5.32335e-07 0)
(5.02741 6.48419e-07 0)
(5.02741 7.26348e-07 0)
(5.02741 7.43067e-07 0)
(5.02741 6.79359e-07 0)
(5.02741 5.42458e-07 0)
(5.02741 3.74973e-07 0)
(5.02741 2.2945e-07 0)
(5.02741 1.23417e-07 0)
(5.02741 3.74289e-08 0)
(5.02741 -6.13289e-08 0)
(5.02741 -1.81836e-07 0)
(5.02741 -2.86108e-07 0)
(5.02741 -3.30277e-07 0)
(5.02741 -3.06073e-07 0)
(5.02741 -2.30638e-07 0)
(5.02741 -1.28796e-07 0)
(5.02741 -3.64275e-08 0)
(5.02741 3.4336e-08 0)
(5.02741 1.34297e-07 0)
(5.02741 2.83878e-07 0)
(5.02741 4.13911e-07 0)
(5.02741 5.0218e-07 0)
(5.02741 5.78199e-07 0)
(5.02741 6.24038e-07 0)
(5.02741 6.48694e-07 0)
(5.02741 6.7901e-07 0)
(5.02741 6.58609e-07 0)
(5.02741 5.49941e-07 0)
(5.02741 4.21649e-07 0)
(5.02741 3.30505e-07 0)
(5.02741 2.51777e-07 0)
(5.02741 1.5179e-07 0)
(5.02741 3.15767e-08 0)
(5.02741 -8.66898e-08 0)
(5.02741 -2.09792e-07 0)
(5.02741 -3.22549e-07 0)
(5.02742 -3.75967e-07 0)
(5.02742 -4.09632e-07 0)
(5.02742 -4.60849e-07 0)
(5.02742 -5.11292e-07 0)
(5.02742 -5.08459e-07 0)
(5.02742 -5.08272e-07 0)
(5.02742 -5.3095e-07 0)
(5.02742 -4.69395e-07 0)
(5.55395 1.09856e-05 0)
(5.55395 1.29058e-05 0)
(5.55396 1.2499e-05 0)
(5.55395 7.72002e-06 0)
(5.55395 2.36916e-06 0)
(5.55395 -4.22379e-07 0)
(5.55395 -2.42186e-06 0)
(5.55396 -3.11689e-06 0)
(5.55396 -3.12762e-06 0)
(5.55396 -3.00984e-06 0)
(5.55396 -2.70356e-06 0)
(5.55397 -2.38227e-06 0)
(5.55397 -2.05879e-06 0)
(5.55397 -1.47514e-06 0)
(5.55398 -1.16396e-06 0)
(5.55398 -1.33958e-06 0)
(5.55398 -1.48403e-06 0)
(5.55398 -1.65803e-06 0)
(5.55398 -2.00075e-06 0)
(5.55398 -2.2779e-06 0)
(5.55398 -2.49808e-06 0)
(5.55398 -2.77542e-06 0)
(5.55398 -2.91214e-06 0)
(5.55399 -2.85127e-06 0)
(5.55399 -2.89857e-06 0)
(5.55399 -3.06962e-06 0)
(5.55399 -3.0524e-06 0)
(5.55399 -2.82603e-06 0)
(5.55399 -2.56234e-06 0)
(5.55399 -2.29193e-06 0)
(5.55399 -2.04147e-06 0)
(5.55399 -1.82323e-06 0)
(5.55399 -1.58506e-06 0)
(5.55399 -1.34805e-06 0)
(5.55399 -1.11366e-06 0)
(5.55399 -8.33253e-07 0)
(5.55399 -5.56426e-07 0)
(5.55399 -3.67194e-07 0)
(5.55399 -2.78265e-07 0)
(5.55399 -2.08961e-07 0)
(5.55399 -5.79666e-08 0)
(5.55399 1.22467e-07 0)
(5.55399 2.10461e-07 0)
(5.55399 2.25783e-07 0)
(5.55399 2.5173e-07 0)
(5.55399 3.08282e-07 0)
(5.55399 3.74977e-07 0)
(5.55399 4.13839e-07 0)
(5.55399 3.74114e-07 0)
(5.55399 2.25522e-07 0)
(5.55399 2.06675e-08 0)
(5.55399 -1.18306e-07 0)
(5.55399 -1.39557e-07 0)
(5.55399 -1.19521e-07 0)
(5.55399 -1.23617e-07 0)
(5.55399 -1.25877e-07 0)
(5.55399 -8.53615e-08 0)
(5.55399 -1.93329e-08 0)
(5.55399 2.7755e-08 0)
(5.55399 3.78414e-08 0)
(5.55399 2.18881e-08 0)
(5.55399 -1.36508e-08 0)
(5.55399 -6.06155e-08 0)
(5.55399 -9.16749e-08 0)
(5.55399 -9.1634e-08 0)
(5.55399 -8.53901e-08 0)
(5.55399 -1.04535e-07 0)
(5.55399 -1.34031e-07 0)
(5.55399 -1.16037e-07 0)
(5.55399 -3.21052e-08 0)
(5.55399 4.90267e-08 0)
(5.55399 5.83254e-08 0)
(5.55399 2.29028e-08 0)
(5.55399 1.94321e-08 0)
(5.55399 7.83247e-08 0)
(5.55399 1.66254e-07 0)
(5.55399 2.29846e-07 0)
(5.55399 2.42229e-07 0)
(5.55399 2.27724e-07 0)
(5.55399 2.42127e-07 0)
(5.55399 3.05169e-07 0)
(5.55399 3.72578e-07 0)
(5.55399 3.90329e-07 0)
(5.55399 3.56424e-07 0)
(5.55399 3.10566e-07 0)
(5.55399 2.90695e-07 0)
(5.55399 3.04571e-07 0)
(5.55399 3.24641e-07 0)
(5.55399 3.06678e-07 0)
(5.55399 2.31477e-07 0)
(5.55399 1.27593e-07 0)
(5.55399 3.61501e-08 0)
(5.55399 -3.69844e-08 0)
(5.55399 -1.1812e-07 0)
(5.55399 -2.30164e-07 0)
(5.55399 -3.62305e-07 0)
(5.55399 -4.7846e-07 0)
(5.55399 -5.4554e-07 0)
(5.55399 -5.49054e-07 0)
(5.55399 -5.06371e-07 0)
(5.55399 -4.50873e-07 0)
(5.55399 -3.74142e-07 0)
(5.55399 -2.23536e-07 0)
(5.55399 1.18308e-08 0)
(5.55399 2.58639e-07 0)
(5.55399 4.34989e-07 0)
(5.55399 5.24583e-07 0)
(5.55399 5.54429e-07 0)
(5.55399 5.54172e-07 0)
(5.55399 5.3715e-07 0)
(5.55399 4.8831e-07 0)
(5.55399 3.91535e-07 0)
(5.55399 2.65368e-07 0)
(5.55399 1.45046e-07 0)
(5.55399 5.32333e-08 0)
(5.55399 -1.62674e-08 0)
(5.55399 -8.92505e-08 0)
(5.55399 -1.6872e-07 0)
(5.55399 -2.25329e-07 0)
(5.55399 -2.3294e-07 0)
(5.55399 -1.8482e-07 0)
(5.55399 -8.95249e-08 0)
(5.55399 1.06001e-08 0)
(5.55399 5.58505e-08 0)
(5.55399 7.6459e-08 0)
(5.55399 1.57426e-07 0)
(5.55399 2.66427e-07 0)
(5.55399 3.40894e-07 0)
(5.55399 4.10703e-07 0)
(5.55399 4.6975e-07 0)
(5.55399 4.75661e-07 0)
(5.55399 4.54099e-07 0)
(5.55399 4.24283e-07 0)
(5.55399 3.55712e-07 0)
(5.55399 2.61392e-07 0)
(5.55399 1.97004e-07 0)
(5.55399 1.54094e-07 0)
(5.55399 8.42597e-08 0)
(5.55399 -2.66822e-08 0)
(5.55399 -1.41651e-07 0)
(5.55399 -2.33441e-07 0)
(5.55399 -3.22313e-07 0)
(5.55399 -3.55665e-07 0)
(5.55399 -3.4502e-07 0)
(5.55399 -3.41496e-07 0)
(5.55399 -4.16724e-07 0)
(5.55399 -5.4252e-07 0)
(5.55399 -6.24349e-07 0)
(5.55399 -8.75657e-07 0)
(5.554 -8.7499e-07 0)
(5.86963 7.72657e-06 0)
(5.86964 9.99806e-06 0)
(5.86965 9.00431e-06 0)
(5.86965 6.86499e-06 0)
(5.86965 3.1126e-06 0)
(5.86965 -5.01576e-07 0)
(5.86965 -2.89384e-06 0)
(5.86965 -4.10116e-06 0)
(5.86965 -5.02269e-06 0)
(5.86965 -5.40785e-06 0)
(5.86965 -5.06542e-06 0)
(5.86965 -4.35483e-06 0)
(5.86965 -3.75061e-06 0)
(5.86965 -3.28314e-06 0)
(5.86965 -3.11903e-06 0)
(5.86966 -3.37527e-06 0)
(5.86966 -3.46004e-06 0)
(5.86966 -3.33752e-06 0)
(5.86966 -3.40898e-06 0)
(5.86966 -3.49212e-06 0)
(5.86966 -3.39675e-06 0)
(5.86966 -3.38414e-06 0)
(5.86966 -3.52423e-06 0)
(5.86966 -3.54075e-06 0)
(5.86966 -3.40986e-06 0)
(5.86966 -3.31755e-06 0)
(5.86966 -3.20449e-06 0)
(5.86966 -2.99045e-06 0)
(5.86966 -2.75671e-06 0)
(5.86966 -2.49939e-06 0)
(5.86966 -2.21069e-06 0)
(5.86966 -1.93875e-06 0)
(5.86966 -1.64306e-06 0)
(5.86966 -1.33463e-06 0)
(5.86966 -1.09809e-06 0)
(5.86966 -9.21479e-07 0)
(5.86967 -7.56481e-07 0)
(5.86967 -5.92471e-07 0)
(5.86967 -4.53944e-07 0)
(5.86967 -3.57804e-07 0)
(5.86967 -2.40187e-07 0)
(5.86967 -6.51432e-08 0)
(5.86967 8.95043e-08 0)
(5.86967 1.85679e-07 0)
(5.86967 2.49908e-07 0)
(5.86967 2.77864e-07 0)
(5.86967 2.64828e-07 0)
(5.86967 2.42545e-07 0)
(5.86967 2.30418e-07 0)
(5.86967 1.95769e-07 0)
(5.86967 9.75151e-08 0)
(5.86967 -1.97155e-08 0)
(5.86967 -6.59444e-08 0)
(5.86967 -4.99027e-08 0)
(5.86967 -5.59171e-08 0)
(5.86967 -1.0627e-07 0)
(5.86967 -1.42015e-07 0)
(5.86967 -1.12466e-07 0)
(5.86967 -4.03722e-08 0)
(5.86967 1.95274e-08 0)
(5.86967 4.0183e-08 0)
(5.86967 2.33944e-08 0)
(5.86967 -2.01082e-08 0)
(5.86967 -6.05185e-08 0)
(5.86967 -5.83497e-08 0)
(5.86967 -3.6746e-09 0)
(5.86967 6.02357e-08 0)
(5.86967 7.09225e-08 0)
(5.86967 2.60189e-08 0)
(5.86967 -8.02919e-09 0)
(5.86967 6.93308e-09 0)
(5.86967 3.49057e-08 0)
(5.86967 4.14227e-08 0)
(5.86967 4.59324e-08 0)
(5.86967 7.91533e-08 0)
(5.86967 1.43206e-07 0)
(5.86967 2.16521e-07 0)
(5.86967 2.59973e-07 0)
(5.86967 2.43141e-07 0)
(5.86967 1.89027e-07 0)
(5.86967 1.62756e-07 0)
(5.86967 1.96521e-07 0)
(5.86967 2.5511e-07 0)
(5.86967 2.87406e-07 0)
(5.86967 2.81334e-07 0)
(5.86967 2.62929e-07 0)
(5.86967 2.61467e-07 0)
(5.86967 2.75649e-07 0)
(5.86967 2.69434e-07 0)
(5.86967 2.01576e-07 0)
(5.86967 7.14842e-08 0)
(5.86967 -7.44617e-08 0)
(5.86967 -1.83898e-07 0)
(5.86967 -2.45999e-07 0)
(5.86967 -2.88107e-07 0)
(5.86967 -3.3395e-07 0)
(5.86967 -3.83494e-07 0)
(5.86967 -4.18857e-07 0)
(5.86967 -4.10275e-07 0)
(5.86967 -3.43432e-07 0)
(5.86967 -2.51071e-07 0)
(5.86967 -1.76141e-07 0)
(5.86967 -1.00934e-07 0)
(5.86967 2.43215e-08 0)
(5.86967 1.90911e-07 0)
(5.86967 3.32338e-07 0)
(5.86967 4.02554e-07 0)
(5.86967 4.02831e-07 0)
(5.86967 3.6232e-07 0)
(5.86967 3.22482e-07 0)
(5.86967 2.96833e-07 0)
(5.86967 2.55543e-07 0)
(5.86967 1.77067e-07 0)
(5.86967 7.91931e-08 0)
(5.86967 -1.92982e-09 0)
(5.86967 -4.73754e-08 0)
(5.86967 -7.75098e-08 0)
(5.86967 -1.13859e-07 0)
(5.86967 -1.37794e-07 0)
(5.86967 -1.24797e-07 0)
(5.86967 -8.50515e-08 0)
(5.86967 -3.34996e-08 0)
(5.86967 3.57903e-08 0)
(5.86967 8.96274e-08 0)
(5.86967 9.98616e-08 0)
(5.86967 1.29001e-07 0)
(5.86967 1.90446e-07 0)
(5.86967 2.22074e-07 0)
(5.86967 2.48706e-07 0)
(5.86967 2.92928e-07 0)
(5.86967 2.80854e-07 0)
(5.86967 1.99055e-07 0)
(5.86967 1.3591e-07 0)
(5.86967 1.09227e-07 0)
(5.86967 5.35955e-08 0)
(5.86967 -1.23723e-08 0)
(5.86967 -4.76592e-08 0)
(5.86967 -9.41783e-08 0)
(5.86967 -1.82004e-07 0)
(5.86967 -2.65458e-07 0)
(5.86967 -2.83404e-07 0)
(5.86967 -3.06455e-07 0)
(5.86967 -3.75323e-07 0)
(5.86967 -4.21945e-07 0)
(5.86967 -3.76601e-07 0)
(5.86967 -3.52119e-07 0)
(5.86967 -5.04093e-07 0)
(5.86967 -6.62889e-07 0)
(5.86967 -1.00098e-06 0)
(5.86967 -1.09201e-06 0)
(5.97483 2.34356e-06 0)
(5.97484 3.7298e-06 0)
(5.97485 3.11401e-06 0)
(5.97485 3.80356e-06 0)
(5.97485 3.4407e-06 0)
(5.97485 1.31432e-06 0)
(5.97485 -3.2776e-07 0)
(5.97484 -2.03907e-06 0)
(5.97484 -3.53934e-06 0)
(5.97484 -4.14996e-06 0)
(5.97484 -4.27139e-06 0)
(5.97484 -4.2183e-06 0)
(5.97484 -4.29241e-06 0)
(5.97483 -4.5555e-06 0)
(5.97483 -4.78513e-06 0)
(5.97484 -5.05128e-06 0)
(5.97484 -5.08981e-06 0)
(5.97484 -4.78717e-06 0)
(5.97484 -4.58162e-06 0)
(5.97484 -4.50295e-06 0)
(5.97484 -4.24758e-06 0)
(5.97484 -3.94481e-06 0)
(5.97484 -3.87653e-06 0)
(5.97484 -3.86786e-06 0)
(5.97484 -3.65254e-06 0)
(5.97484 -3.36772e-06 0)
(5.97484 -3.1721e-06 0)
(5.97484 -2.99789e-06 0)
(5.97484 -2.7959e-06 0)
(5.97484 -2.54187e-06 0)
(5.97484 -2.25713e-06 0)
(5.97484 -2.02608e-06 0)
(5.97484 -1.78705e-06 0)
(5.97484 -1.46821e-06 0)
(5.97484 -1.18497e-06 0)
(5.97484 -1.02822e-06 0)
(5.97484 -9.34222e-07 0)
(5.97484 -7.97847e-07 0)
(5.97484 -6.1224e-07 0)
(5.97484 -4.68872e-07 0)
(5.97484 -3.68157e-07 0)
(5.97484 -2.22944e-07 0)
(5.97484 -4.42997e-08 0)
(5.97484 1.00897e-07 0)
(5.97484 1.95167e-07 0)
(5.97484 2.20706e-07 0)
(5.97484 1.61955e-07 0)
(5.97484 6.88149e-08 0)
(5.97484 3.10472e-08 0)
(5.97484 7.61652e-08 0)
(5.97484 1.16789e-07 0)
(5.97484 7.14147e-08 0)
(5.97484 -1.66148e-08 0)
(5.97484 -6.69664e-08 0)
(5.97484 -8.20852e-08 0)
(5.97484 -1.01746e-07 0)
(5.97484 -1.21835e-07 0)
(5.97484 -9.81955e-08 0)
(5.97484 -2.38582e-08 0)
(5.97484 5.18447e-08 0)
(5.97484 8.70814e-08 0)
(5.97484 8.54764e-08 0)
(5.97484 7.23733e-08 0)
(5.97484 6.36682e-08 0)
(5.97484 6.48222e-08 0)
(5.97484 8.65568e-08 0)
(5.97484 1.26912e-07 0)
(5.97484 1.38692e-07 0)
(5.97484 6.95641e-08 0)
(5.97484 -4.98565e-08 0)
(5.97484 -1.25474e-07 0)
(5.97484 -1.13404e-07 0)
(5.97484 -4.66799e-08 0)
(5.97484 2.86231e-08 0)
(5.97484 9.11055e-08 0)
(5.97484 1.38702e-07 0)
(5.97484 1.82432e-07 0)
(5.97484 2.27536e-07 0)
(5.97484 2.49723e-07 0)
(5.97484 2.21359e-07 0)
(5.97484 1.67121e-07 0)
(5.97484 1.48661e-07 0)
(5.97484 1.90853e-07 0)
(5.97484 2.54117e-07 0)
(5.97484 2.83065e-07 0)
(5.97484 2.58027e-07 0)
(5.97484 2.04166e-07 0)
(5.97484 1.55885e-07 0)
(5.97484 1.16632e-07 0)
(5.97484 6.12508e-08 0)
(5.97484 -3.11138e-08 0)
(5.97484 -1.44902e-07 0)
(5.97484 -2.3592e-07 0)
(5.97484 -2.74269e-07 0)
(5.97484 -2.64351e-07 0)
(5.97484 -2.29618e-07 0)
(5.97484 -1.94551e-07 0)
(5.97484 -1.8032e-07 0)
(5.97484 -1.85132e-07 0)
(5.97484 -1.72361e-07 0)
(5.97484 -1.20778e-07 0)
(5.97484 -6.8098e-08 0)
(5.97484 -4.94278e-08 0)
(5.97484 -3.80442e-08 0)
(5.97484 5.10262e-09 0)
(5.97484 7.36099e-08 0)
(5.97484 1.38701e-07 0)
(5.97484 1.77364e-07 0)
(5.97484 1.70912e-07 0)
(5.97484 1.3224e-07 0)
(5.97484 1.04723e-07 0)
(5.97484 1.0691e-07 0)
(5.97484 1.15196e-07 0)
(5.97484 9.91125e-08 0)
(5.97484 6.03952e-08 0)
(5.97484 3.37741e-08 0)
(5.97484 3.71986e-08 0)
(5.97484 5.4124e-08 0)
(5.97484 7.61667e-08 0)
(5.97484 1.15019e-07 0)
(5.97484 1.49246e-07 0)
(5.97484 1.42341e-07 0)
(5.97484 1.34007e-07 0)
(5.97484 1.62126e-07 0)
(5.97484 1.70251e-07 0)
(5.97484 1.47036e-07 0)
(5.97484 1.33907e-07 0)
(5.97484 1.07349e-07 0)
(5.97484 6.54785e-08 0)
(5.97484 4.47229e-08 0)
(5.97484 1.05332e-08 0)
(5.97484 -7.70978e-08 0)
(5.97484 -1.47396e-07 0)
(5.97484 -1.43709e-07 0)
(5.97484 -1.63151e-07 0)
(5.97484 -2.40221e-07 0)
(5.97484 -2.76866e-07 0)