/*--------------------------------*- C++ -*----------------------------------*\
| =========                 |                                                 |
| \\      /  F ield         | OpenFOAM: The Open Source CFD Toolbox           |
|  \\    /   O peration     | Version:  2406                                  |
|   \\  /    A nd           | Website:  www.openfoam.com                      |
|    \\/     M anipulation  |                                                 |
\*---------------------------------------------------------------------------*/
FoamFile
{
    version     2.0;
    format      ascii;
    arch        "LSB;label=32;scalar=64";
    class       surfaceScalarField;
    location    "0.2";
    object      phi;
}
// * * * * * * * * * * * * * * * * * * * * * * * * * * * * * * * * * * * * * //

dimensions      [0 3 -1 0 0 0 0];

oriented        oriented;

internalField   nonuniform List<scalar> 
4335
(
2.80425e-05
-3.06933e-12
2.80425e-05
-1.31424e-11
2.80426e-05
-1.08848e-11
2.80426e-05
-9.74202e-12
2.80426e-05
5.23452e-13
2.80426e-05
-9.02645e-12
2.80426e-05
-2.81745e-11
2.80426e-05
-1.60511e-11
2.80427e-05
-5.36346e-12
2.80427e-05
-1.73921e-11
2.80427e-05
-2.24796e-11
2.80427e-05
-1.42182e-11
2.80427e-05
-2.80952e-12
2.80427e-05
-4.49778e-12
2.80427e-05
-1.27668e-11
2.80428e-05
-1.72532e-11
2.80428e-05
-1.41042e-11
2.80428e-05
-1.00093e-11
2.80428e-05
-8.55885e-12
2.80428e-05
-7.8458e-12
2.80428e-05
-5.08385e-12
2.80428e-05
-2.19371e-12
2.80428e-05
-4.29551e-12
2.80428e-05
-6.11785e-12
2.80428e-05
-3.85797e-12
2.80428e-05
-3.2489e-12
2.80428e-05
-6.79488e-12
2.80428e-05
-1.15873e-11
2.80428e-05
-1.38444e-11
2.80428e-05
-1.31303e-11
2.80428e-05
-1.08963e-11
2.80429e-05
-1.10407e-11
2.80429e-05
-1.49211e-11
2.80429e-05
-1.74541e-11
2.80429e-05
-1.2516e-11
2.80429e-05
-1.99514e-12
2.80429e-05
6.44221e-12
2.80429e-05
8.99289e-12
2.80429e-05
7.15051e-12
2.80429e-05
4.59631e-12
2.80429e-05
2.83695e-12
2.80429e-05
1.79416e-12
2.80429e-05
3.14973e-12
2.80429e-05
7.39877e-12
2.80429e-05
1.32581e-11
2.80429e-05
1.793e-11
2.80429e-05
1.91398e-11
2.80429e-05
1.55883e-11
2.80429e-05
8.01833e-12
2.80429e-05
5.99524e-13
2.80429e-05
-1.37448e-12
2.80429e-05
2.46633e-12
2.80429e-05
6.92644e-12
2.80429e-05
7.92917e-12
2.80429e-05
7.54331e-12
2.80429e-05
1.00291e-11
2.80429e-05
1.46985e-11
2.80429e-05
1.72624e-11
2.80429e-05
1.3692e-11
2.80429e-05
5.72491e-12
2.80429e-05
-2.76609e-13
2.80429e-05
-1.44211e-12
2.80429e-05
2.02426e-13
2.80429e-05
7.90871e-13
2.80429e-05
-5.99749e-13
2.80429e-05
-1.73899e-12
2.80429e-05
-1.40231e-13
2.80429e-05
3.42162e-12
2.80429e-05
5.68467e-12
2.80429e-05
3.79279e-12
2.80429e-05
-7.02002e-13
2.80429e-05
-2.94219e-12
2.80429e-05
1.13157e-12
2.80429e-05
9.40061e-12
2.80429e-05
1.56636e-11
2.80429e-05
1.54937e-11
2.80429e-05
1.05145e-11
2.80429e-05
5.85877e-12
2.80429e-05
5.14741e-12
2.80428e-05
7.83615e-12
2.80428e-05
9.98759e-12
2.80428e-05
8.84403e-12
2.80428e-05
6.19415e-12
2.80428e-05
5.58127e-12
2.80428e-05
7.95504e-12
2.80428e-05
1.02259e-11
2.80428e-05
8.06e-12
2.80428e-05
1.25459e-12
2.80428e-05
-5.8064e-12
2.80428e-05
-7.79261e-12
2.80428e-05
-3.99089e-12
2.80428e-05
1.4412e-12
2.80428e-05
2.98348e-12
2.80428e-05
-4.41866e-13
2.80428e-05
-5.18561e-12
2.80428e-05
-7.07392e-12
2.80428e-05
-5.88191e-12
2.80429e-05
-4.91933e-12
2.80429e-05
-7.24666e-12
2.80429e-05
-1.10198e-11
2.80429e-05
-1.14902e-11
2.80429e-05
-7.34218e-12
2.80429e-05
-2.05785e-12
2.80429e-05
-1.72684e-13
2.80429e-05
-2.55456e-12
2.80429e-05
-5.26606e-12
2.80429e-05
-3.98454e-12
2.80429e-05
1.95249e-12
2.80429e-05
9.05802e-12
2.80429e-05
1.30858e-11
2.80429e-05
1.25867e-11
2.80429e-05
1.02795e-11
2.80429e-05
9.25238e-12
2.80429e-05
9.56224e-12
2.80429e-05
8.26346e-12
2.80429e-05
3.53355e-12
2.80429e-05
-2.32324e-12
2.80428e-05
-5.04995e-12
2.80428e-05
-2.41835e-12
2.80428e-05
3.38705e-12
2.80428e-05
7.99196e-12
2.80428e-05
8.80136e-12
2.80428e-05
6.94245e-12
2.80428e-05
4.68053e-12
2.80428e-05
3.10942e-12
2.80428e-05
1.61192e-12
2.80428e-05
-8.79908e-13
2.80428e-05
-5.11266e-12
2.80429e-05
-9.31676e-12
2.80429e-05
-9.67272e-12
2.80429e-05
-6.73176e-12
2.80429e-05
-5.41651e-12
2.80429e-05
-8.21661e-12
2.80429e-05
-1.33466e-11
2.80429e-05
-1.76346e-11
2.80429e-05
-1.76862e-11
2.80429e-05
-1.15721e-11
2.80429e-05
-3.12388e-12
2.80429e-05
4.25997e-13
2.80429e-05
-1.97644e-12
2.80429e-05
-4.94719e-12
2.80429e-05
-5.31594e-12
2.80429e-05
-4.13604e-12
2.80429e-05
-4.41938e-12
2.80429e-05
-4.2596e-12
2.80429e-05
-9.28587e-13
2.80429e-05
-4.50884e-13
2.80429e-05
-5.12371e-12
2.80429e-05
-5.40211e-12
-2.99903e-12
7.57989e-05
-3.59908e-11
7.57989e-05
-3.98058e-11
7.57989e-05
-3.68623e-11
7.57989e-05
-4.22516e-11
7.57989e-05
-5.30322e-11
7.57989e-05
-3.07034e-11
7.5799e-05
-2.26868e-11
7.5799e-05
-5.17459e-11
7.5799e-05
-5.35658e-11
7.5799e-05
-3.99625e-11
7.5799e-05
-2.76428e-11
7.5799e-05
-2.73363e-11
7.5799e-05
-3.39704e-11
7.5799e-05
-3.10055e-11
7.57991e-05
-3.55403e-11
7.57991e-05
-4.18174e-11
7.57991e-05
-4.79976e-11
7.57991e-05
-5.03101e-11
7.57991e-05
-4.10109e-11
7.57991e-05
-2.81309e-11
7.57992e-05
-2.43072e-11
7.57992e-05
-2.8451e-11
7.57992e-05
-2.99418e-11
7.57992e-05
-2.38674e-11
7.57992e-05
-1.58901e-11
7.57992e-05
-1.32986e-11
7.57992e-05
-1.68637e-11
7.57992e-05
-2.43713e-11
7.57992e-05
-3.10024e-11
7.57992e-05
-3.15456e-11
7.57992e-05
-2.76208e-11
7.57993e-05
-2.77449e-11
7.57993e-05
-3.31522e-11
7.57993e-05
-3.68312e-11
7.57993e-05
-3.17689e-11
7.57993e-05
-2.03282e-11
7.57993e-05
-1.08359e-11
7.57993e-05
-8.11281e-12
7.57993e-05
-9.55553e-12
7.57993e-05
-7.17039e-12
7.57993e-05
1.64756e-12
7.57993e-05
1.16068e-11
7.57994e-05
1.64668e-11
7.57994e-05
1.53283e-11
7.57994e-05
1.23266e-11
7.57994e-05
1.01605e-11
7.57994e-05
7.83791e-12
7.57994e-05
3.48168e-12
7.57994e-05
-3.87697e-12
7.57994e-05
-1.28295e-11
7.57994e-05
-1.89565e-11
7.57994e-05
-1.85114e-11
7.57994e-05
-1.20751e-11
7.57994e-05
-5.43241e-12
7.57994e-05
-3.58964e-12
7.57994e-05
-5.3654e-12
7.57994e-05
-5.77788e-12
7.57994e-05
-2.52525e-12
7.57994e-05
7.36367e-13
7.57995e-05
-1.00189e-12
7.57995e-05
-7.52901e-12
7.57994e-05
-1.35069e-11
7.57994e-05
-1.37464e-11
7.57994e-05
-8.05125e-12
7.57994e-05
-1.47592e-14
7.57994e-05
6.14144e-12
7.57994e-05
7.75941e-12
7.57994e-05
6.95451e-12
7.57994e-05
8.10982e-12
7.57994e-05
1.29247e-11
7.57994e-05
1.86591e-11
7.57994e-05
2.13331e-11
7.57994e-05
2.10553e-11
7.57994e-05
2.17095e-11
7.57993e-05
2.61746e-11
7.57993e-05
3.19384e-11
7.57993e-05
3.33969e-11
7.57993e-05
2.75864e-11
7.57993e-05
1.74021e-11
7.57993e-05
9.18529e-12
7.57992e-05
6.27721e-12
7.57992e-05
6.30614e-12
7.57992e-05
4.34266e-12
7.57992e-05
-1.47179e-12
7.57992e-05
-8.07953e-12
7.57992e-05
-1.12687e-11
7.57992e-05
-1.07691e-11
7.57992e-05
-8.26729e-12
7.57992e-05
-6.27524e-12
7.57992e-05
-4.09753e-12
7.57992e-05
3.51484e-14
7.57993e-05
7.36726e-12
7.57993e-05
1.42572e-11
7.57993e-05
1.58272e-11
7.57993e-05
9.74669e-12
7.57993e-05
-5.42792e-13
7.57993e-05
-8.62259e-12
7.57993e-05
-9.9981e-12
7.57993e-05
-7.06345e-12
7.57994e-05
-5.00351e-12
7.57994e-05
-5.711e-12
7.57994e-05
-7.12379e-12
7.57994e-05
-6.60023e-12
7.57994e-05
-3.77835e-12
7.57994e-05
-5.98066e-13
7.57994e-05
1.01603e-12
7.57994e-05
1.46137e-12
7.57994e-05
3.34272e-12
7.57994e-05
8.61816e-12
7.57994e-05
1.62004e-11
7.57994e-05
2.11611e-11
7.57994e-05
1.97353e-11
7.57994e-05
1.30716e-11
7.57994e-05
6.01837e-12
7.57993e-05
1.92873e-12
7.57993e-05
1.29798e-13
7.57993e-05
-1.34954e-12
7.57993e-05
-2.79878e-12
7.57993e-05
-2.65196e-12
7.57993e-05
3.45122e-13
7.57993e-05
4.30599e-12
7.57993e-05
6.02573e-12
7.57993e-05
3.26956e-12
7.57993e-05
-2.95295e-12
7.57993e-05
-8.91092e-12
7.57993e-05
-1.15944e-11
7.57993e-05
-1.05021e-11
7.57993e-05
-7.17269e-12
7.57993e-05
-3.83446e-12
7.57994e-05
-2.03615e-13
7.57994e-05
3.62257e-12
7.57994e-05
4.81757e-12
7.57994e-05
2.53523e-12
7.57994e-05
-7.78289e-13
7.57994e-05
-2.58489e-12
7.57994e-05
-3.29726e-12
7.57994e-05
-3.12584e-12
7.57994e-05
-1.91582e-12
7.57994e-05
-2.07448e-12
7.57994e-05
-4.97475e-12
7.57994e-05
-8.15987e-12
7.57994e-05
-1.03858e-11
7.57994e-05
-1.15396e-11
7.57994e-05
-1.10156e-11
7.57994e-05
-8.5902e-12
7.57994e-05
-5.17675e-12
7.57994e-05
-4.30371e-12
7.57994e-05
-6.56542e-12
7.57994e-05
-1.06865e-11
-9.13079e-12
0.000115553
-5.13528e-11
0.000115553
-3.84266e-11
0.000115553
-2.93146e-11
0.000115553
-1.4991e-11
0.000115553
-2.10332e-11
0.000115553
-2.76672e-11
0.000115553
-4.18034e-12
0.000115553
-7.36503e-12
0.000115553
-1.19625e-11
0.000115553
-8.40888e-12
0.000115553
-1.20876e-11
0.000115553
-1.44745e-11
0.000115553
-2.00228e-11
0.000115553
-1.62037e-11
0.000115553
-1.90199e-11
0.000115553
-2.20854e-11
0.000115553
-1.96009e-11
0.000115553
-1.77459e-11
0.000115553
-1.62508e-11
0.000115553
-1.78113e-11
0.000115553
-2.78595e-11
0.000115553
-3.84493e-11
0.000115553
-3.71109e-11
0.000115553
-2.66352e-11
0.000115553
-2.15919e-11
0.000115553
-2.90915e-11
0.000115553
-3.93447e-11
0.000115553
-4.42477e-11
0.000115553
-4.41278e-11
0.000115553
-4.36973e-11
0.000115553
-4.54638e-11
0.000115553
-4.81294e-11
0.000115553
-4.87797e-11
0.000115553
-4.61393e-11
0.000115553
-3.99824e-11
0.000115553
-3.05338e-11
0.000115553
-1.9938e-11
0.000115553
-1.20662e-11
0.000115553
-8.5974e-12
0.000115553
-7.4132e-12
0.000115553
-5.08308e-12
0.000115553
-5.23848e-13
0.000115553
4.59222e-12
0.000115553
7.68571e-12
0.000115553
7.66503e-12
0.000115553
3.93573e-12
0.000115553
-2.81675e-12
0.000115553
-9.47814e-12
0.000115553
-1.33818e-11
0.000115553
-1.3932e-11
0.000115553
-1.32861e-11
0.000115553
-1.26664e-11
0.000115553
-1.0643e-11
0.000115553
-6.45543e-12
0.000115553
-2.58166e-12
0.000115553
-1.86281e-12
0.000115553
-3.81646e-12
0.000115553
-4.73477e-12
0.000115553
-2.11667e-12
0.000115553
2.43039e-12
0.000115553
5.27094e-12
0.000115553
5.38029e-12
0.000115553
4.48505e-12
0.000115553
5.88878e-12
0.000115553
1.09868e-11
0.000115553
1.80758e-11
0.000115553
2.36697e-11
0.000115553
2.59518e-11
0.000115553
2.65063e-11
0.000115553
2.86225e-11
0.000115553
3.34467e-11
0.000115553
3.8406e-11
0.000115553
4.0189e-11
0.000115553
3.85804e-11
0.000115553
3.66767e-11
0.000115553
3.69273e-11
0.000115553
3.81432e-11
0.000115553
3.65662e-11
0.000115553
2.96604e-11
0.000115553
1.89318e-11
0.000115553
8.57971e-12
0.000115553
1.28265e-12
0.000115553
-3.6186e-12
0.000115553
-9.24277e-12
0.000115553
-1.66538e-11
0.000115553
-2.33436e-11
0.000115553
-2.58279e-11
0.000115553
-2.29002e-11
0.000115553
-1.70809e-11
0.000115553
-1.24014e-11
0.000115553
-1.16025e-11
0.000115553
-1.40488e-11
0.000115553
-1.70099e-11
0.000115553
-1.8534e-11
0.000115553
-1.94184e-11
0.000115553
-2.14463e-11
0.000115553
-2.40372e-11
0.000115553
-2.39652e-11
0.000115553
-1.95374e-11
0.000115553
-1.31257e-11
0.000115553
-8.79035e-12
0.000115553
-8.40387e-12
0.000115553
-1.01348e-11
0.000115553
-1.0479e-11
0.000115553
-6.25711e-12
0.000115553
1.91809e-12
0.000115553
1.0712e-11
0.000115553
1.71109e-11
0.000115553
2.11232e-11
0.000115553
2.44472e-11
0.000115553
2.71103e-11
0.000115553
2.71647e-11
0.000115553
2.3265e-11
0.000115553
1.71846e-11
0.000115553
1.25225e-11
0.000115553
1.16075e-11
0.000115553
1.38989e-11
0.000115553
1.62027e-11
0.000115553
1.48603e-11
0.000115553
9.20312e-12
0.000115553
2.37071e-12
0.000115553
-2.43885e-12
0.000115553
-4.50009e-12
0.000115553
-5.62543e-12
0.000115553
-7.06105e-12
0.000115553
-9.33527e-12
0.000115553
-1.19232e-11
0.000115553
-1.33959e-11
0.000115553
-1.4064e-11
0.000115553
-1.56066e-11
0.000115553
-1.85334e-11
0.000115553
-2.1862e-11
0.000115553
-2.36512e-11
0.000115553
-2.20682e-11
0.000115553
-1.61636e-11
0.000115553
-8.39551e-12
0.000115553
-3.13729e-12
0.000115553
-1.00198e-12
0.000115553
1.32618e-13
0.000115553
4.41846e-13
0.000115553
-1.33462e-12
0.000115553
-4.37985e-12
0.000115553
-5.39066e-12
0.000115553
-2.61689e-12
0.000115553
5.88306e-13
0.000115553
3.29343e-12
0.000115553
-1.29847e-12
0.000115553
-8.24987e-12
0.000115553
-1.94232e-11
-2.24233e-11
0.000147609
-8.64538e-11
0.000147609
-6.39143e-11
0.000147609
-4.71358e-11
0.000147609
-3.89849e-11
0.000147609
-1.93365e-11
0.000147609
-9.22739e-12
0.000147609
-1.49474e-12
0.000147609
1.2543e-11
0.000147609
1.68596e-11
0.000147609
1.7062e-11
0.000147609
1.88171e-11
0.000147609
1.6399e-11
0.000147609
2.06634e-11
0.000147609
2.14143e-11
0.000147609
1.84565e-11
0.000147609
2.05546e-11
0.000147609
2.70212e-11
0.000147609
2.58452e-11
0.000147609
1.38625e-11
0.000147609
3.20156e-12
0.000147609
-1.46426e-12
0.000147609
-5.64502e-12
0.000147609
-1.29094e-11
0.000147609
-2.17432e-11
0.000147609
-2.85899e-11
0.000147609
-3.12685e-11
0.000147609
-2.92038e-11
0.000147609
-2.53696e-11
0.000147609
-2.47358e-11
0.000147609
-2.86883e-11
0.000147609
-3.30373e-11
0.000147609
-3.29654e-11
0.000147609
-2.74627e-11
0.000147609
-1.94999e-11
0.000147609
-1.1788e-11
0.000147609
-3.43506e-12
0.000147609
6.52669e-12
0.000147609
1.50729e-11
0.000147609
1.83314e-11
0.000147609
1.61148e-11
0.000147609
1.2033e-11
0.000147609
8.95661e-12
0.000147609
6.6085e-12
0.000147609
3.40851e-12
0.000147609
-2.60223e-12
0.000147609
-1.07695e-11
0.000147609
-1.88483e-11
0.000147609
-2.4246e-11
0.000147609
-2.57557e-11
0.000147609
-2.51549e-11
0.000147609
-2.60706e-11
0.000147609
-2.95341e-11
0.000147609
-3.22453e-11
0.000147609
-3.02743e-11
0.000147609
-2.34922e-11
0.000147609
-1.58384e-11
0.000147609
-1.10104e-11
0.000147609
-8.93912e-12
0.000147609
-7.62315e-12
0.000147609
-5.72346e-12
0.000147609
-3.73703e-12
0.000147609
-1.41868e-12
0.000147609
2.05949e-12
0.000147609
7.0939e-12
0.000147609
1.32302e-11
0.000147609
1.92682e-11
0.000147609
2.43269e-11
0.000147609
2.82716e-11
0.000147609
3.15627e-11
0.000147609
3.49752e-11
0.000147609
3.90465e-11
0.000147609
4.35689e-11
0.000147609
4.71312e-11
0.000147609
4.85587e-11
0.000147609
4.80771e-11
0.000147609
4.6525e-11
0.000147609
4.43501e-11
0.000147609
4.1003e-11
0.000147609
3.53355e-11
0.000147609
2.68779e-11
0.000147609
1.65468e-11
0.000147609
5.57739e-12
0.000147609
-3.08124e-12
0.000147609
-9.69442e-12
0.000147609
-1.53111e-11
0.000147609
-2.04567e-11
0.000147609
-2.43386e-11
0.000147609
-2.61124e-11
0.000147609
-2.62458e-11
0.000147609
-2.64515e-11
0.000147609
-2.82923e-11
0.000147609
-3.20787e-11
0.000147609
-3.65585e-11
0.000147609
-3.9536e-11
0.000147609
-3.99783e-11
0.000147609
-3.9313e-11
0.000147609
-3.92694e-11
0.000147609
-3.90252e-11
0.000147609
-3.63358e-11
0.000147609
-3.04094e-11
0.000147609
-2.249e-11
0.000147609
-1.47898e-11
0.000147609
-7.55324e-12
0.000147609
-9.3676e-13
0.000147609
6.25525e-12
0.000147609
1.54178e-11
0.000147609
2.5575e-11
0.000147609
3.39239e-11
0.000147609
3.82145e-11
0.000147609
3.83257e-11
0.000147609
3.56362e-11
0.000147609
3.18027e-11
0.000147609
2.81442e-11
0.000147609
2.57144e-11
0.000147609
2.49668e-11
0.000147609
2.52765e-11
0.000147609
2.51959e-11
0.000147609
2.3032e-11
0.000147609
1.72132e-11
0.000147609
8.37217e-12
0.000147609
-2.49189e-13
0.000147609
-5.44884e-12
0.000147609
-6.70795e-12
0.000147609
-5.1612e-12
0.000147609
-3.03766e-12
0.000147609
-3.54592e-12
0.000147609
-8.04934e-12
0.000147609
-1.32624e-11
0.000147609
-1.58697e-11
0.000147609
-1.68101e-11
0.000147609
-1.74342e-11
0.000147609
-1.62437e-11
0.000147609
-1.18685e-11
0.000147609
-6.88173e-12
0.000147609
-3.5538e-12
0.000147609
-1.36881e-12
0.000147609
-2.05839e-13
0.000147609
7.52111e-13
0.000147609
4.98643e-12
0.000147609
1.30587e-11
0.000147609
1.8867e-11
0.000147609
1.75442e-11
0.000147609
1.36665e-11
0.000147609
1.27466e-11
0.000147609
9.91998e-12
0.000147609
5.69184e-12
0.000147609
-3.76836e-13
0.000147609
-8.71614e-12
0.000147609
-2.24695e-11
-2.97605e-11
0.000172238
-8.53356e-11
0.000172238
-8.73799e-11
0.000172238
-7.11746e-11
0.000172238
-6.28499e-11
0.000172238
-3.5579e-11
0.000172238
-6.38313e-12
0.000172238
4.77569e-12
0.000172238
2.6281e-11
0.000172238
4.6272e-11
0.000172238
5.27791e-11
0.000172238
6.65407e-11
0.000172238
7.61801e-11
0.000172238
7.99445e-11
0.000172238
7.78976e-11
0.000172238
8.11097e-11
0.000172238
8.09693e-11
0.000172238
6.95263e-11
0.000172238
4.98116e-11
0.000172238
2.97779e-11
0.000172237
1.48678e-11
0.000172237
5.63496e-12
0.000172237
2.99883e-13
0.000172237
-5.11128e-12
0.000172237
-1.33965e-11
0.000172237
-2.02375e-11
0.000172237
-2.12621e-11
0.000172237
-1.673e-11
0.000172237
-9.36216e-12
0.000172237
-4.12448e-12
0.000172237
-5.97509e-12
0.000172237
-1.40629e-11
0.000172237
-2.10301e-11
0.000172237
-2.01659e-11
0.000172237
-1.29547e-11
0.000172237
-7.20603e-12
0.000172237
-6.71821e-12
0.000172237
-8.04652e-12
0.000172237
-7.80834e-12
0.000172237
-7.08908e-12
0.000172237
-8.6306e-12
0.000172237
-1.13359e-11
0.000172237
-1.47184e-11
0.000172237
-1.8178e-11
0.000172237
-2.18323e-11
0.000172237
-2.52048e-11
0.000172237
-2.697e-11
0.000172237
-2.82822e-11
0.000172237
-3.07779e-11
0.000172237
-3.46609e-11
0.000172237
-3.82692e-11
0.000172237
-4.08317e-11
0.000172237
-4.30476e-11
0.000172237
-4.4536e-11
0.000172237
-4.31502e-11
0.000172237
-3.76304e-11
0.000172237
-2.98717e-11
0.000172237
-2.34832e-11
0.000172237
-2.04562e-11
0.000172237
-1.94663e-11
0.000172238
-1.74184e-11
0.000172238
-1.31157e-11
0.000172238
-6.69032e-12
0.000172238
1.26102e-12
0.000172238
9.52437e-12
0.000172238
1.73391e-11
0.000172237
2.49601e-11
0.000172237
3.34444e-11
0.000172237
4.29609e-11
0.000172237
5.1734e-11
0.000172237
5.76148e-11
0.000172237
6.05582e-11
0.000172237
6.2502e-11
0.000172237
6.44585e-11
0.000172237
6.47942e-11
0.000172237
6.12965e-11
0.000172237
5.39634e-11
0.000172237
4.47404e-11
0.000172237
3.54986e-11
0.000172237
2.65659e-11
0.000172237
1.67136e-11
0.000172237
5.17577e-12
0.000172237
-6.94754e-12
0.000172237
-1.59565e-11
0.000172237
-2.05952e-11
0.000172237
-2.18107e-11
0.000172237
-2.30335e-11
0.000172237
-2.64675e-11
0.000172237
-3.16181e-11
0.000172237
-3.64347e-11
0.000172237
-3.97865e-11
0.000172237
-4.23083e-11
0.000172237
-4.55131e-11
0.000172237
-4.95999e-11
0.000172237
-5.24835e-11
0.000172237
-5.13599e-11
0.000172237
-4.60927e-11
0.000172237
-3.96306e-11
0.000172238
-3.45115e-11
0.000172238
-3.0231e-11
0.000172238
-2.51137e-11
0.000172238
-1.88438e-11
0.000172238
-1.21376e-11
0.000172238
-5.67092e-12
0.000172238
4.24485e-13
0.000172238
5.77856e-12
0.000172238
1.2119e-11
0.000172238
2.04744e-11
0.000172238
2.90496e-11
0.000172238
3.4521e-11
0.000172238
3.60631e-11
0.000172238
3.64195e-11
0.000172238
3.86968e-11
0.000172238
4.33692e-11
0.000172238
4.81021e-11
0.000172238
4.98327e-11
0.000172238
4.63731e-11
0.000172238
3.75733e-11
0.000172237
2.58794e-11
0.000172237
1.45232e-11
0.000172237
5.21722e-12
0.000172237
-1.74686e-12
0.000172237
-6.40309e-12
0.000172237
-8.55004e-12
0.000172237
-9.02309e-12
0.000172237
-1.01351e-11
0.000172237
-1.41124e-11
0.000172237
-2.04252e-11
0.000172238
-2.51726e-11
0.000172238
-2.52942e-11
0.000172238
-2.23573e-11
0.000172238
-1.89583e-11
0.000172238
-1.44191e-11
0.000172238
-8.15396e-12
0.000172238
-2.55865e-12
0.000172238
9.61252e-13
0.000172238
4.83898e-12
0.000172238
9.88111e-12
0.000172238
1.34682e-11
0.000172238
1.46039e-11
0.000172238
1.66823e-11
0.000172237
2.22805e-11
0.000172237
2.8084e-11
0.000172237
2.96485e-11
0.000172237
2.93316e-11
0.000172237
2.59783e-11
0.000172237
1.14335e-11
0.000172237
-3.26301e-13
0.000172237
-1.33559e-11
0.000172237
-2.26244e-11
-2.9077e-11
0.000189662
-7.09086e-11
0.000189662
-7.64707e-11
0.000189662
-6.46767e-11
0.000189662
-5.04123e-11
0.000189662
-2.88406e-11
0.000189662
-7.67593e-12
0.000189662
1.63634e-11
0.000189662
4.9014e-11
0.000189662
7.99822e-11
0.000189662
9.15484e-11
0.000189662
1.09195e-10
0.000189662
1.29844e-10
0.000189662
1.37648e-10
0.000189662
1.3552e-10
0.000189662
1.36375e-10
0.000189662
1.30496e-10
0.000189661
1.10497e-10
0.000189661
8.80983e-11
0.000189661
7.1204e-11
0.000189661
5.59955e-11
0.000189661
4.22467e-11
0.000189661
3.3057e-11
0.000189661
2.50571e-11
0.000189661
1.58767e-11
0.000189661
1.0477e-11
0.000189661
9.67087e-12
0.000189661
6.14407e-12
0.000189661
2.20483e-13
0.000189661
-6.72382e-13
0.000189661
5.78394e-12
0.000189661
1.32244e-11
0.000189661
1.60568e-11
0.000189661
1.64014e-11
0.000189661
1.91997e-11
0.000189661
2.39939e-11
0.000189661
2.6017e-11
0.000189661
2.28892e-11
0.000189661
1.61477e-11
0.000189661
8.90137e-12
0.000189661
3.42171e-12
0.000189661
3.16403e-14
0.000189661
-2.87016e-12
0.000189661
-8.22465e-12
0.000189661
-1.71531e-11
0.000189661
-2.68913e-11
0.000189661
-3.36438e-11
0.000189661
-3.65159e-11
0.000189661
-3.90664e-11
0.000189661
-4.42116e-11
0.000189661
-4.94879e-11
0.000189661
-4.9809e-11
0.000189661
-4.42753e-11
0.000189661
-3.77542e-11
0.000189661
-3.51656e-11
0.000189661
-3.60497e-11
0.000189661
-3.54193e-11
0.000189661
-2.92341e-11
0.000189661
-1.88949e-11
0.000189661
-9.24427e-12
0.000189661
-2.9557e-12
0.000189661
9.32435e-13
0.000189661
4.82124e-12
0.000189661
1.08297e-11
0.000189661
1.90189e-11
0.000189661
2.75511e-11
0.000189661
3.49344e-11
0.000189661
4.14787e-11
0.000189661
4.89358e-11
0.000189661
5.75739e-11
0.000189661
6.47369e-11
0.000189661
6.74387e-11
0.000189661
6.60588e-11
0.000189661
6.41628e-11
0.000189661
6.42522e-11
0.000189661
6.4714e-11
0.000189661
6.19167e-11
0.000189661
5.4105e-11
0.000189661
4.27763e-11
0.000189661
3.13227e-11
0.000189661
2.21755e-11
0.000189661
1.49749e-11
0.000189661
7.25526e-12
0.000189661
-2.18933e-12
0.000189661
-1.26357e-11
0.000189661
-2.1784e-11
0.000189661
-2.85987e-11
0.000189661
-3.42461e-11
0.000189661
-4.0464e-11
0.000189661
-4.77666e-11
0.000189661
-5.46913e-11
0.000189661
-5.88449e-11
0.000189661
-5.96299e-11
0.000189661
-5.94671e-11
0.000189661
-6.12737e-11
0.000189661
-6.48058e-11
0.000189661
-6.65523e-11
0.000189661
-6.3923e-11
0.000189661
-5.7731e-11
0.000189661
-4.99334e-11
0.000189661
-4.11999e-11
0.000189661
-3.13423e-11
0.000189661
-2.00784e-11
0.000189661
-7.27933e-12
0.000189661
5.85808e-12
0.000189661
1.65304e-11
0.000189661
2.32174e-11
0.000189661
2.82069e-11
0.000189661
3.53308e-11
0.000189661
4.50421e-11
0.000189661
5.42559e-11
0.000189661
6.06483e-11
0.000189661
6.42536e-11
0.000189661
6.56659e-11
0.000189661
6.4593e-11
0.000189661
6.01722e-11
0.000189661
5.15288e-11
0.000189661
3.86649e-11
0.000189661
2.46718e-11
0.000189661
1.44334e-11
0.000189661
9.72161e-12
0.000189661
6.73349e-12
0.000189661
1.03111e-12
0.000189661
-7.12235e-12
0.000189661
-1.57558e-11
0.000189661
-2.38783e-11
0.000189661
-3.04299e-11
0.000189661
-3.30422e-11
0.000189661
-3.12071e-11
0.000189661
-2.70169e-11
0.000189661
-2.19608e-11
0.000189661
-1.60955e-11
0.000189661
-9.85419e-12
0.000189661
-4.53274e-12
0.000189661
-6.83371e-13
0.000189661
2.41004e-12
0.000189661
7.4344e-12
0.000189661
1.62592e-11
0.000189661
2.71191e-11
0.000189661
3.66882e-11
0.000189661
4.28819e-11
0.000189661
4.58458e-11
0.000189661
4.65913e-11
0.000189661
4.11446e-11
0.000189661
3.23385e-11
0.000189661
2.92615e-11
0.000189661
1.87188e-11
0.000189661
7.96711e-12
0.000189661
-6.57338e-12
0.000189661
-1.38671e-11
-2.35499e-11
0.000200048
-1.19234e-10
0.000200048
-9.73812e-11
0.000200048
-8.81765e-11
0.000200048
-7.03771e-11
0.000200048
-3.76611e-11
0.000200048
-1.13225e-11
0.000200048
2.49517e-11
0.000200048
6.82627e-11
0.000200048
1.13802e-10
0.000200048
1.45879e-10
0.000200048
1.69095e-10
0.000200048
1.87012e-10
0.000200048
2.00009e-10
0.000200048
2.10741e-10
0.000200047
2.10516e-10
0.000200047
1.94073e-10
0.000200047
1.73793e-10
0.000200047
1.62361e-10
0.000200047
1.54922e-10
0.000200047
1.41032e-10
0.000200047
1.20617e-10
0.000200047
9.94233e-11
0.000200047
7.88479e-11
0.000200047
5.8919e-11
0.000200047
4.40461e-11
0.000200047
3.60786e-11
0.000200047
3.00323e-11
0.000200047
2.30054e-11
0.000200047
1.76913e-11
0.000200047
1.67834e-11
0.000200047
1.88452e-11
0.000200047
1.96605e-11
0.000200047
1.74006e-11
0.000200047
1.38734e-11
0.000200047
1.18375e-11
0.000200047
1.13247e-11
0.000200047
1.00885e-11
0.000200047
7.00852e-12
0.000200047
3.04988e-12
0.000200047
-3.60757e-13
0.000200047
-3.02942e-12
0.000200047
-6.32061e-12
0.000200047
-1.12943e-11
0.000200047
-1.676e-11
0.000200047
-2.18327e-11
0.000200047
-2.60238e-11
0.000200047
-2.90268e-11
0.000200047
-3.11937e-11
0.000200047
-3.32082e-11
0.000200047
-3.52744e-11
0.000200047
-3.6577e-11
0.000200047
-3.64682e-11
0.000200047
-3.56552e-11
0.000200047
-3.55194e-11
0.000200047
-3.64422e-11
0.000200047
-3.67889e-11
0.000200047
-3.40451e-11
0.000200047
-2.72759e-11
0.000200047
-1.81506e-11
0.000200047
-8.38334e-12
0.000200047
1.39105e-13
0.000200047
8.34707e-12
0.000200047
1.66584e-11
0.000200047
2.56639e-11
0.000200047
3.52176e-11
0.000200047
4.4023e-11
0.000200047
5.02665e-11
0.000200047
5.35879e-11
0.000200047
5.58643e-11
0.000200047
5.9268e-11
0.000200047
6.34818e-11
0.000200047
6.60351e-11
0.000200047
6.52912e-11
0.000200047
6.18364e-11
0.000200047
5.71808e-11
0.000200047
5.20794e-11
0.000200047
4.6401e-11
0.000200047
3.97679e-11
0.000200047
3.21274e-11
0.000200047
2.43059e-11
0.000200047
1.69683e-11
0.000200047
8.9281e-12
0.000200047
-9.21484e-13
0.000200047
-1.34614e-11
0.000200047
-2.75577e-11
0.000200047
-4.0009e-11
0.000200047
-4.85912e-11
0.000200047
-5.33366e-11
0.000200047
-5.66324e-11
0.000200047
-6.13648e-11
0.000200047
-6.80856e-11
0.000200047
-7.43467e-11
0.000200047
-7.77979e-11
0.000200047
-7.87408e-11
0.000200047
-7.89091e-11
0.000200047
-7.81306e-11
0.000200047
-7.42436e-11
0.000200047
-6.63559e-11
0.000200047
-5.57915e-11
0.000200047
-4.44526e-11
0.000200047
-3.39107e-11
0.000200047
-2.48132e-11
0.000200047
-1.606e-11
0.000200047
-5.61087e-12
0.000200047
7.15713e-12
0.000200047
1.99077e-11
0.000200047
3.05307e-11
0.000200047
3.98626e-11
0.000200047
4.94427e-11
0.000200047
5.85515e-11
0.000200047
6.53195e-11
0.000200047
6.8635e-11
0.000200047
6.78513e-11
0.000200047
6.26277e-11
0.000200047
5.43503e-11
0.000200047
4.60834e-11
0.000200047
3.96998e-11
0.000200047
3.42277e-11
0.000200047
2.78706e-11
0.000200047
1.96653e-11
0.000200047
9.56264e-12
0.000200047
-1.86664e-12
0.000200047
-1.35336e-11
0.000200047
-2.50711e-11
0.000200047
-3.58242e-11
0.000200047
-4.30758e-11
0.000200047
-4.37297e-11
0.000200047
-3.93888e-11
0.000200047
-3.51641e-11
0.000200047
-3.25576e-11
0.000200047
-2.87387e-11
0.000200047
-2.30352e-11
0.000200047
-1.65145e-11
0.000200047
-8.13663e-12
0.000200047
2.50383e-12
0.000200047
1.31997e-11
0.000200047
2.19444e-11
0.000200047
2.95658e-11
0.000200047
3.72293e-11
0.000200047
4.09692e-11
0.000200047
3.77207e-11
0.000200047
3.43994e-11
0.000200047
3.80019e-11
0.000200047
3.63891e-11
0.000200047
2.97475e-11
0.000200047
2.42096e-11
0.000200047
1.99077e-11
0.000200047
1.0945e-11
0.000200047
7.31498e-13
-7.74291e-12
0.000203499
-1.32572e-10
0.000203499
-1.18243e-10
0.000203499
-8.8655e-11
0.000203498
-6.74086e-11
0.000203498
-3.58519e-11
0.000203498
1.32972e-11
0.000203498
6.07014e-11
0.000203498
9.87261e-11
0.000203498
1.30096e-10
0.000203498
1.70805e-10
0.000203498
2.09368e-10
0.000203498
2.32953e-10
0.000203498
2.45353e-10
0.000203498
2.49259e-10
0.000203498
2.42815e-10
0.000203498
2.31056e-10
0.000203498
2.20206e-10
0.000203498
2.06137e-10
0.000203498
1.85256e-10
0.000203498
1.63555e-10
0.000203498
1.43976e-10
0.000203498
1.235e-10
0.000203498
1.02958e-10
0.000203498
8.57477e-11
0.000203498
7.35325e-11
0.000203498
6.63664e-11
0.000203498
6.23498e-11
0.000203498
5.86756e-11
0.000203498
5.4358e-11
0.000203498
5.05707e-11
0.000203498
4.85358e-11
0.000203498
4.63896e-11
0.000203498
4.09388e-11
0.000203498
3.24668e-11
0.000203498
2.5876e-11
0.000203498
2.39155e-11
0.000203498
2.28121e-11
0.000203498
1.98701e-11
0.000203498
1.47649e-11
0.000203498
8.65696e-12
0.000203498
1.88756e-12
0.000203498
-6.15862e-12
0.000203498
-1.33487e-11
0.000203498
-1.71121e-11
0.000203498
-1.85117e-11
0.000203498
-2.08399e-11
0.000203498
-2.46882e-11
0.000203498
-2.74089e-11
0.000203498
-2.68343e-11
0.000203498
-2.43201e-11
0.000203498
-2.32684e-11
0.000203498
-2.56509e-11
0.000203498
-3.06699e-11
0.000203498
-3.56723e-11
0.000203498
-3.79693e-11
0.000203498
-3.64587e-11
0.000203498
-3.1922e-11
0.000203498
-2.57738e-11
0.000203498
-1.917e-11
0.000203498
-1.12282e-11
0.000203498
-2.34445e-12
0.000203498
7.31563e-12
0.000203498
1.70549e-11
0.000203498
2.62744e-11
0.000203498
3.53188e-11
0.000203498
4.45993e-11
0.000203498
5.3261e-11
0.000203498
5.94653e-11
0.000203498
6.25192e-11
0.000203498
6.38061e-11
0.000203498
6.51091e-11
0.000203498
6.64706e-11
0.000203498
6.64415e-11
0.000203498
6.40468e-11
0.000203498
5.98032e-11
0.000203498
5.4923e-11
0.000203498
5.01571e-11
0.000203498
4.50111e-11
0.000203498
3.80066e-11
0.000203498
2.79674e-11
0.000203498
1.59477e-11
0.000203498
3.1155e-12
0.000203498
-8.69059e-12
0.000203498
-1.91152e-11
0.000203498
-2.89651e-11
0.000203498
-3.81299e-11
0.000203498
-4.6155e-11
0.000203498
-5.27654e-11
0.000203498
-5.80741e-11
0.000203498
-6.27249e-11
0.000203498
-6.7405e-11
0.000203498
-7.15732e-11
0.000203498
-7.3556e-11
0.000203498
-7.24189e-11
0.000203498
-6.92291e-11
0.000203498
-6.58449e-11
0.000203498
-6.30084e-11
0.000203498
-6.01944e-11
0.000203498
-5.66583e-11
0.000203498
-5.14857e-11
0.000203498
-4.3365e-11
0.000203498
-3.23535e-11
0.000203498
-1.96783e-11
0.000203498
-6.37686e-12
0.000203498
7.46751e-12
0.000203498
2.12617e-11
0.000203498
3.31538e-11
0.000203498
4.17238e-11
0.000203498
4.76155e-11
0.000203498
5.23977e-11
0.000203498
5.71211e-11
0.000203498
6.16209e-11
0.000203498
6.45334e-11
0.000203498
6.4195e-11
0.000203498
6.03107e-11
0.000203498
5.43775e-11
0.000203498
4.80178e-11
0.000203498
4.10794e-11
0.000203498
3.18288e-11
0.000203498
1.9082e-11
0.000203498
4.15713e-12
0.000203498
-9.84946e-12
0.000203498
-2.15004e-11
0.000203498
-3.14647e-11
0.000203498
-3.94701e-11
0.000203498
-4.34572e-11
0.000203498
-4.27835e-11
0.000203498
-3.97815e-11
0.000203498
-3.6683e-11
0.000203498
-3.28735e-11
0.000203498
-2.62085e-11
0.000203498
-1.73203e-11
0.000203498
-8.30673e-12
0.000203498
9.07805e-13
0.000203498
1.12983e-11
0.000203498
1.9349e-11
0.000203498
2.43584e-11
0.000203498
2.786e-11
0.000203498
2.98734e-11
0.000203498
3.23028e-11
0.000203498
3.55936e-11
0.000203498
3.47622e-11
0.000203498
3.74471e-11