/*--------------------------------*- C++ -*----------------------------------*\
| =========                 |                                                 |
| \\      /  F ield         | OpenFOAM: The Open Source CFD Toolbox           |
|  \\    /   O peration     | Version:  2406                                  |
|   \\  /    A nd           | Website:  www.openfoam.com                      |
|    \\/     M anipulation  |                                                 |
\*---------------------------------------------------------------------------*/
FoamFile
{
    version     2.0;
    format      ascii;
    arch        "LSB;label=32;scalar=64";
    class       volVectorField;
    location    "0.2";
    object      U;
}
// * * * * * * * * * * * * * * * * * * * * * * * * * * * * * * * * * * * * * //

dimensions      [0 1 -1 0 0 0 0];

internalField   nonuniform List<vector> 
2250
(
(0.420638 -1.03299e-08 0)
(0.420638 -8.37575e-08 0)
(0.420638 -9.67561e-08 0)
(0.420638 -8.3576e-08 0)
(0.420639 -1.66151e-08 0)
(0.420639 -9.08296e-08 0)
(0.420639 -2.53563e-07 0)
(0.420639 -1.90803e-07 0)
(0.42064 -1.09741e-07 0)
(0.42064 -1.73956e-07 0)
(0.42064 -1.81704e-07 0)
(0.42064 -1.08108e-07 0)
(0.42064 -4.19051e-08 0)
(0.420641 -6.35547e-08 0)
(0.420641 -1.23173e-07 0)
(0.420641 -1.47894e-07 0)
(0.420641 -1.13534e-07 0)
(0.420642 -7.08472e-08 0)
(0.420642 -4.71221e-08 0)
(0.420642 -3.83035e-08 0)
(0.420642 -2.13438e-08 0)
(0.420642 -2.9813e-09 0)
(0.420642 -1.48262e-08 0)
(0.420642 -3.18839e-08 0)
(0.420642 -3.20072e-08 0)
(0.420643 -3.50191e-08 0)
(0.420643 -4.81078e-08 0)
(0.420642 -6.29352e-08 0)
(0.420642 -7.54965e-08 0)
(0.420642 -7.36872e-08 0)
(0.420643 -6.12064e-08 0)
(0.420643 -6.8102e-08 0)
(0.420643 -1.06704e-07 0)
(0.420643 -1.35911e-07 0)
(0.420643 -1.01979e-07 0)
(0.420643 -1.58306e-08 0)
(0.420643 5.88663e-08 0)
(0.420644 8.38587e-08 0)
(0.420644 7.25454e-08 0)
(0.420644 4.80163e-08 0)
(0.420644 2.07039e-08 0)
(0.420644 2.33378e-09 0)
(0.420644 9.07508e-09 0)
(0.420644 5.00421e-08 0)
(0.420644 1.05054e-07 0)
(0.420644 1.42233e-07 0)
(0.420643 1.4997e-07 0)
(0.420643 1.28181e-07 0)
(0.420643 7.87593e-08 0)
(0.420643 1.86737e-08 0)
(0.420643 -1.79889e-08 0)
(0.420643 -1.41872e-08 0)
(0.420643 1.07094e-08 0)
(0.420644 2.89087e-08 0)
(0.420644 4.12684e-08 0)
(0.420644 6.87555e-08 0)
(0.420644 1.10921e-07 0)
(0.420644 1.29523e-07 0)
(0.420644 9.87196e-08 0)
(0.420644 3.73155e-08 0)
(0.420644 -1.54532e-08 0)
(0.420644 -3.40419e-08 0)
(0.420644 -2.81469e-08 0)
(0.420644 -2.11831e-08 0)
(0.420644 -2.22218e-08 0)
(0.420644 -1.98236e-08 0)
(0.420644 -5.99265e-09 0)
(0.420644 1.20672e-08 0)
(0.420644 1.48491e-08 0)
(0.420644 -6.44363e-09 0)
(0.420644 -3.50105e-08 0)
(0.420644 -3.86591e-08 0)
(0.420644 -1.51307e-09 0)
(0.420644 6.09478e-08 0)
(0.420644 1.10536e-07 0)
(0.420644 1.18142e-07 0)
(0.420643 8.731e-08 0)
(0.420643 5.12076e-08 0)
(0.420643 3.93264e-08 0)
(0.420643 5.12609e-08 0)
(0.420643 6.59029e-08 0)
(0.420643 6.76338e-08 0)
(0.420642 6.21152e-08 0)
(0.420642 6.66116e-08 0)
(0.420642 8.15452e-08 0)
(0.420642 8.54791e-08 0)
(0.420642 5.79665e-08 0)
(0.420642 6.21498e-09 0)
(0.420642 -3.89948e-08 0)
(0.420642 -4.90554e-08 0)
(0.420642 -2.32384e-08 0)
(0.420642 1.17708e-08 0)
(0.420642 2.59416e-08 0)
(0.420642 1.07834e-08 0)
(0.420643 -1.75742e-08 0)
(0.420643 -3.41792e-08 0)
(0.420643 -3.32731e-08 0)
(0.420643 -3.38801e-08 0)
(0.420643 -5.27712e-08 0)
(0.420643 -7.68982e-08 0)
(0.420643 -7.93022e-08 0)
(0.420643 -5.25345e-08 0)
(0.420643 -2.05008e-08 0)
(0.420643 -9.87262e-09 0)
(0.420643 -2.1306e-08 0)
(0.420643 -3.15816e-08 0)
(0.420643 -1.8696e-08 0)
(0.420643 2.05443e-08 0)
(0.420643 6.50615e-08 0)
(0.420643 8.94181e-08 0)
(0.420643 8.65915e-08 0)
(0.420643 7.06898e-08 0)
(0.420643 6.04537e-08 0)
(0.420643 5.6264e-08 0)
(0.420643 4.09851e-08 0)
(0.420643 6.94389e-09 0)
(0.420643 -2.7762e-08 0)
(0.420643 -3.63533e-08 0)
(0.420643 -1.02528e-08 0)
(0.420643 3.43717e-08 0)
(0.420643 6.87182e-08 0)
(0.420643 7.76162e-08 0)
(0.420643 6.67638e-08 0)
(0.420643 4.98116e-08 0)
(0.420642 3.16862e-08 0)
(0.420642 1.17399e-08 0)
(0.420643 -1.25538e-08 0)
(0.420643 -4.34043e-08 0)
(0.420643 -6.75666e-08 0)
(0.420643 -6.53274e-08 0)
(0.420643 -4.70324e-08 0)
(0.420643 -4.39054e-08 0)
(0.420643 -6.68331e-08 0)
(0.420643 -1.00664e-07 0)
(0.420643 -1.26751e-07 0)
(0.420643 -1.26668e-07 0)
(0.420643 -8.654e-08 0)
(0.420644 -2.83734e-08 0)
(0.420644 -2.97707e-09 0)
(0.420644 -2.23651e-08 0)
(0.420644 -4.84153e-08 0)
(0.420644 -5.20929e-08 0)
(0.420644 -4.07513e-08 0)
(0.420644 -3.61348e-08 0)
(0.420644 -3.00909e-08 0)
(0.420644 -5.37619e-09 0)
(0.420644 -4.4361e-09 0)
(0.420644 -4.00514e-08 0)
(0.420644 -4.20982e-08 0)
(0.420644 -1.62085e-08 0)
(1.13698 -2.61119e-07 0)
(1.13698 -3.89136e-07 0)
(1.13698 -3.58199e-07 0)
(1.13698 -4.3439e-07 0)
(1.13698 -4.24867e-07 0)
(1.13698 -3.28014e-07 0)
(1.13698 -4.41574e-07 0)
(1.13698 -6.1739e-07 0)
(1.13698 -5.43443e-07 0)
(1.13698 -5.24004e-07 0)
(1.13698 -4.65824e-07 0)
(1.13699 -3.85026e-07 0)
(1.13699 -3.26323e-07 0)
(1.13699 -3.17489e-07 0)
(1.13699 -4.11328e-07 0)
(1.13699 -4.93427e-07 0)
(1.13699 -5.10793e-07 0)
(1.13699 -4.81974e-07 0)
(1.13699 -3.76703e-07 0)
(1.13699 -2.65057e-07 0)
(1.13699 -2.13694e-07 0)
(1.13699 -2.17732e-07 0)
(1.13699 -2.37284e-07 0)
(1.13699 -1.98847e-07 0)
(1.13699 -1.22526e-07 0)
(1.13699 -1.09131e-07 0)
(1.13699 -1.71444e-07 0)
(1.13699 -2.57712e-07 0)
(1.13699 -3.20478e-07 0)
(1.13699 -3.18158e-07 0)
(1.13699 -2.73549e-07 0)
(1.13699 -2.70506e-07 0)
(1.13699 -3.40339e-07 0)
(1.13699 -3.95428e-07 0)
(1.13699 -3.28661e-07 0)
(1.13699 -1.57724e-07 0)
(1.13699 -1.21712e-08 0)
(1.13699 2.72219e-08 0)
(1.13699 4.00345e-09 0)
(1.13699 -2.3973e-09 0)
(1.13699 3.98539e-08 0)
(1.13699 1.01761e-07 0)
(1.13699 1.44086e-07 0)
(1.13699 1.73092e-07 0)
(1.13699 2.08422e-07 0)
(1.13699 2.35022e-07 0)
(1.13699 2.23074e-07 0)
(1.13699 1.54698e-07 0)
(1.13699 3.80835e-08 0)
(1.13699 -8.54101e-08 0)
(1.13699 -1.52716e-07 0)
(1.13699 -1.31764e-07 0)
(1.13699 -5.88911e-08 0)
(1.13699 -2.38594e-09 0)
(1.13699 1.44207e-08 0)
(1.13699 3.01871e-08 0)
(1.13699 7.7778e-08 0)
(1.13699 1.24746e-07 0)
(1.13699 1.13058e-07 0)
(1.13699 3.1421e-08 0)
(1.13699 -7.186e-08 0)
(1.13699 -1.33894e-07 0)
(1.13699 -1.33955e-07 0)
(1.13699 -9.30134e-08 0)
(1.13699 -4.4579e-08 0)
(1.13699 -3.99518e-09 0)
(1.13699 3.00182e-08 0)
(1.13699 6.03234e-08 0)
(1.13699 8.37422e-08 0)
(1.13699 9.39977e-08 0)
(1.13699 9.31998e-08 0)
(1.13699 1.00147e-07 0)
(1.13699 1.39682e-07 0)
(1.13699 2.19235e-07 0)
(1.13699 3.08688e-07 0)
(1.13699 3.56213e-07 0)
(1.13699 3.30016e-07 0)
(1.13699 2.50823e-07 0)
(1.13699 1.72434e-07 0)
(1.13699 1.32665e-07 0)
(1.13699 1.26448e-07 0)
(1.13699 1.19376e-07 0)
(1.13699 9.0892e-08 0)
(1.13699 5.63662e-08 0)
(1.13699 3.82591e-08 0)
(1.13699 3.38041e-08 0)
(1.13699 1.53772e-08 0)
(1.13699 -2.98784e-08 0)
(1.13699 -7.53633e-08 0)
(1.13699 -7.3852e-08 0)
(1.13699 -5.78701e-09 0)
(1.13699 9.30937e-08 0)
(1.13699 1.58683e-07 0)
(1.13699 1.462e-07 0)
(1.13699 6.46724e-08 0)
(1.13699 -2.93328e-08 0)
(1.13699 -8.27227e-08 0)
(1.13699 -9.46546e-08 0)
(1.13699 -1.0243e-07 0)
(1.13699 -1.22516e-07 0)
(1.13699 -1.31696e-07 0)
(1.13699 -1.06108e-07 0)
(1.13699 -6.03151e-08 0)
(1.13699 -3.02578e-08 0)
(1.13699 -3.09276e-08 0)
(1.13699 -4.09372e-08 0)
(1.13699 -2.47638e-08 0)
(1.13699 3.7266e-08 0)
(1.13699 1.30894e-07 0)
(1.13699 2.12219e-07 0)
(1.13699 2.40417e-07 0)
(1.13699 2.10926e-07 0)
(1.13699 1.56345e-07 0)
(1.13699 1.07884e-07 0)
(1.13699 6.25625e-08 0)
(1.13699 4.42141e-09 0)
(1.13699 -5.52395e-08 0)
(1.13699 -8.09485e-08 0)
(1.13699 -4.94075e-08 0)
(1.13699 2.68751e-08 0)
(1.13699 1.02344e-07 0)
(1.13699 1.30378e-07 0)
(1.13699 1.01696e-07 0)
(1.13699 4.22902e-08 0)
(1.13699 -1.56059e-08 0)
(1.13699 -5.49887e-08 0)
(1.13699 -7.59025e-08 0)
(1.13699 -9.23046e-08 0)
(1.13699 -9.99317e-08 0)
(1.13699 -6.93573e-08 0)
(1.13699 -1.3739e-08 0)
(1.13699 5.38502e-09 0)
(1.13699 -3.87927e-08 0)
(1.13699 -1.09843e-07 0)
(1.13699 -1.60536e-07 0)
(1.13699 -1.66897e-07 0)
(1.13699 -1.18543e-07 0)
(1.13699 -4.49038e-08 0)
(1.13699 -1.92767e-08 0)
(1.13699 -6.11959e-08 0)
(1.13699 -1.13989e-07 0)
(1.13699 -1.38296e-07 0)
(1.13699 -1.37378e-07 0)
(1.13699 -1.28136e-07 0)
(1.13699 -1.02884e-07 0)
(1.13699 -4.803e-08 0)
(1.13699 -3.57649e-08 0)
(1.13699 -8.20357e-08 0)
(1.13699 -1.18618e-07 0)
(1.13699 -8.92154e-08 0)
(1.73329 -6.60497e-07 0)
(1.73329 -5.73544e-07 0)
(1.73329 -5.17704e-07 0)
(1.73329 -4.62351e-07 0)
(1.73329 -6.03133e-07 0)
(1.73329 -4.91783e-07 0)
(1.73329 -2.57731e-07 0)
(1.73329 -5.06438e-07 0)
(1.73329 -5.98629e-07 0)
(1.73329 -4.89789e-07 0)
(1.73329 -4.21784e-07 0)
(1.73329 -4.31129e-07 0)
(1.73329 -5.22783e-07 0)
(1.73329 -4.7163e-07 0)
(1.73329 -5.21385e-07 0)
(1.73329 -5.62707e-07 0)
(1.73329 -5.68121e-07 0)
(1.73329 -5.6913e-07 0)
(1.73329 -4.94467e-07 0)
(1.73329 -4.08998e-07 0)
(1.73329 -4.43875e-07 0)
(1.73329 -5.4666e-07 0)
(1.73329 -5.4487e-07 0)
(1.73329 -4.11111e-07 0)
(1.73329 -2.95391e-07 0)
(1.73329 -3.17884e-07 0)
(1.73329 -4.32505e-07 0)
(1.73329 -5.33341e-07 0)
(1.73329 -5.82704e-07 0)
(1.73329 -5.87354e-07 0)
(1.73329 -5.76704e-07 0)
(1.73329 -5.90726e-07 0)
(1.73329 -6.25737e-07 0)
(1.73329 -6.24783e-07 0)
(1.73329 -5.37355e-07 0)
(1.73329 -3.77522e-07 0)
(1.7333 -2.27063e-07 0)
(1.7333 -1.54443e-07 0)
(1.7333 -1.40799e-07 0)
(1.7333 -1.12363e-07 0)
(1.7333 -1.86316e-08 0)
(1.7333 1.11838e-07 0)
(1.7333 2.00766e-07 0)
(1.7333 2.19111e-07 0)
(1.7333 1.96118e-07 0)
(1.7333 1.5409e-07 0)
(1.7333 8.21845e-08 0)
(1.7333 -1.78934e-08 0)
(1.7333 -1.19799e-07 0)
(1.7333 -2.01045e-07 0)
(1.7333 -2.45883e-07 0)
(1.7333 -2.36987e-07 0)
(1.7333 -1.72097e-07 0)
(1.7333 -8.98829e-08 0)
(1.7333 -4.73271e-08 0)
(1.7333 -5.75403e-08 0)
(1.7333 -7.70253e-08 0)
(1.7333 -5.97041e-08 0)
(1.7333 -1.41364e-08 0)
(1.7333 9.85436e-09 0)
(1.7333 -1.37222e-08 0)
(1.7333 -5.76928e-08 0)
(1.7333 -6.87569e-08 0)
(1.7333 -1.60666e-08 0)
(1.7333 7.91918e-08 0)
(1.7333 1.67737e-07 0)
(1.7333 2.16422e-07 0)
(1.7333 2.32292e-07 0)
(1.7333 2.54566e-07 0)
(1.7333 3.10773e-07 0)
(1.7333 3.84924e-07 0)
(1.7333 4.33026e-07 0)
(1.7333 4.38664e-07 0)
(1.7333 4.3242e-07 0)
(1.7333 4.55582e-07 0)
(1.7333 5.0566e-07 0)
(1.7333 5.29505e-07 0)
(1.7333 4.75616e-07 0)
(1.7333 3.48926e-07 0)
(1.73329 2.08511e-07 0)
(1.73329 1.10895e-07 0)
(1.73329 5.74101e-08 0)
(1.73329 7.36833e-09 0)
(1.73329 -7.34124e-08 0)
(1.73329 -1.70173e-07 0)
(1.73329 -2.36108e-07 0)
(1.73329 -2.42782e-07 0)
(1.73329 -2.04736e-07 0)
(1.73329 -1.55594e-07 0)
(1.73329 -1.1349e-07 0)
(1.7333 -7.52196e-08 0)
(1.7333 -3.42153e-08 0)
(1.7333 1.14645e-09 0)
(1.7333 2.63779e-09 0)
(1.7333 -5.28312e-08 0)
(1.7333 -1.50444e-07 0)
(1.7333 -2.31975e-07 0)
(1.7333 -2.45286e-07 0)
(1.7333 -1.95969e-07 0)
(1.7333 -1.38754e-07 0)
(1.7333 -1.15706e-07 0)
(1.7333 -1.23672e-07 0)
(1.7333 -1.28878e-07 0)
(1.7333 -1.06011e-07 0)
(1.7333 -5.08429e-08 0)
(1.7333 1.93126e-08 0)
(1.7333 8.75379e-08 0)
(1.7333 1.5076e-07 0)
(1.7333 2.23705e-07 0)
(1.7333 3.06322e-07 0)
(1.7333 3.62582e-07 0)
(1.7333 3.50483e-07 0)
(1.7333 2.71383e-07 0)
(1.7333 1.76153e-07 0)
(1.7333 1.13687e-07 0)
(1.7333 9.15011e-08 0)
(1.7333 9.03534e-08 0)
(1.7333 9.02069e-08 0)
(1.7333 8.01086e-08 0)
(1.7333 6.26864e-08 0)
(1.7333 4.91892e-08 0)
(1.7333 3.69718e-08 0)
(1.7333 1.07379e-08 0)
(1.7333 -3.57909e-08 0)
(1.7333 -9.01867e-08 0)
(1.7333 -1.34246e-07 0)
(1.7333 -1.54722e-07 0)
(1.7333 -1.51803e-07 0)
(1.7333 -1.40829e-07 0)
(1.7333 -1.2793e-07 0)
(1.7333 -1.1687e-07 0)
(1.7333 -1.26759e-07 0)
(1.7333 -1.54958e-07 0)
(1.7333 -1.68206e-07 0)
(1.7333 -1.44065e-07 0)
(1.7333 -1.01729e-07 0)
(1.7333 -6.76524e-08 0)
(1.7333 -4.45489e-08 0)
(1.7333 -3.42425e-08 0)
(1.7333 -4.77141e-08 0)
(1.7333 -7.98264e-08 0)
(1.7333 -1.13061e-07 0)
(1.7333 -1.24898e-07 0)
(1.7333 -1.01074e-07 0)
(1.7333 -6.33696e-08 0)
(1.7333 -2.03418e-08 0)
(1.7333 -5.36319e-08 0)
(1.7333 -1.26969e-07 0)
(1.7333 -2.31755e-07 0)
(1.7333 -2.39544e-07 0)
(2.21414 -1.03792e-06 0)
(2.21414 -7.79918e-07 0)
(2.21414 -5.59683e-07 0)
(2.21414 -3.82591e-07 0)
(2.21414 -3.20977e-07 0)
(2.21414 -2.99921e-07 0)
(2.21414 -6.36907e-08 0)
(2.21414 2.00383e-08 0)
(2.21414 -6.87635e-09 0)
(2.21414 8.37021e-09 0)
(2.21414 -1.94646e-08 0)
(2.21414 -8.26503e-08 0)
(2.21414 -1.13656e-07 0)
(2.21414 -7.52769e-08 0)
(2.21414 -1.02385e-07 0)
(2.21414 -9.81198e-08 0)
(2.21414 -2.98582e-08 0)
(2.21414 -3.40514e-08 0)
(2.21414 -1.20226e-07 0)
(2.21414 -2.11418e-07 0)
(2.21414 -3.18415e-07 0)
(2.21414 -4.26485e-07 0)
(2.21414 -4.66983e-07 0)
(2.21414 -4.48301e-07 0)
(2.21414 -4.46434e-07 0)
(2.21413 -4.99358e-07 0)
(2.21413 -5.61269e-07 0)
(2.21413 -5.74272e-07 0)
(2.21413 -5.62997e-07 0)
(2.21414 -5.79966e-07 0)
(2.21414 -6.249e-07 0)
(2.21414 -6.53754e-07 0)
(2.21414 -6.23518e-07 0)
(2.21414 -5.38445e-07 0)
(2.21414 -4.24301e-07 0)
(2.21414 -2.85394e-07 0)
(2.21414 -1.28402e-07 0)
(2.21414 1.71845e-09 0)
(2.21414 6.24146e-08 0)
(2.21414 6.53135e-08 0)
(2.21414 6.00696e-08 0)
(2.21414 8.2745e-08 0)
(2.21414 1.16026e-07 0)
(2.21414 1.15202e-07 0)
(2.21414 6.58612e-08 0)
(2.21414 -1.92787e-08 0)
(2.21414 -1.24207e-07 0)
(2.21414 -2.18102e-07 0)
(2.21414 -2.69502e-07 0)
(2.21414 -2.82113e-07 0)
(2.21414 -2.88785e-07 0)
(2.21414 -3.03854e-07 0)
(2.21414 -2.99544e-07 0)
(2.21414 -2.48469e-07 0)
(2.21414 -1.69787e-07 0)
(2.21414 -1.11047e-07 0)
(2.21414 -9.16141e-08 0)
(2.21414 -8.27341e-08 0)
(2.21414 -5.15019e-08 0)
(2.21414 -3.55814e-09 0)
(2.21414 3.27042e-08 0)
(2.21414 4.93238e-08 0)
(2.21414 6.84803e-08 0)
(2.21414 1.1857e-07 0)
(2.21414 2.02261e-07 0)
(2.21414 2.94739e-07 0)
(2.21414 3.66635e-07 0)
(2.21414 4.09689e-07 0)
(2.21414 4.41269e-07 0)
(2.21414 4.87424e-07 0)
(2.21414 5.55025e-07 0)
(2.21414 6.22002e-07 0)
(2.21414 6.57231e-07 0)
(2.21414 6.53329e-07 0)
(2.21414 6.34331e-07 0)
(2.21414 6.23429e-07 0)
(2.21414 6.13011e-07 0)
(2.21414 5.70859e-07 0)
(2.21414 4.73319e-07 0)
(2.21414 3.30429e-07 0)
(2.21414 1.77561e-07 0)
(2.21414 4.9218e-08 0)
(2.21413 -5.21062e-08 0)
(2.21413 -1.48176e-07 0)
(2.21413 -2.49425e-07 0)
(2.21414 -3.37305e-07 0)
(2.21414 -3.79648e-07 0)
(2.21414 -3.67203e-07 0)
(2.21414 -3.25918e-07 0)
(2.21414 -2.95853e-07 0)
(2.21414 -3.04075e-07 0)
(2.21414 -3.47083e-07 0)
(2.21414 -3.98793e-07 0)
(2.21414 -4.32866e-07 0)
(2.21414 -4.47214e-07 0)
(2.21414 -4.60916e-07 0)
(2.21414 -4.78966e-07 0)
(2.21414 -4.72166e-07 0)
(2.21414 -4.14478e-07 0)
(2.21414 -3.21103e-07 0)
(2.21414 -2.32388e-07 0)
(2.21414 -1.7208e-07 0)
(2.21414 -1.33278e-07 0)
(2.21414 -8.48712e-08 0)
(2.21414 1.74287e-09 0)
(2.21414 1.29212e-07 0)
(2.21414 2.68548e-07 0)
(2.21414 3.81059e-07 0)
(2.21414 4.49562e-07 0)
(2.21414 4.81969e-07 0)
(2.21414 4.8508e-07 0)
(2.21414 4.54878e-07 0)
(2.21414 3.93951e-07 0)
(2.21414 3.27439e-07 0)
(2.21414 2.87165e-07 0)
(2.21414 2.83217e-07 0)
(2.21414 2.98195e-07 0)
(2.21414 2.96124e-07 0)
(2.21414 2.40186e-07 0)
(2.21414 1.31396e-07 0)
(2.21414 1.59123e-08 0)
(2.21414 -5.99513e-08 0)
(2.21414 -8.78365e-08 0)
(2.21414 -8.68593e-08 0)
(2.21414 -8.35495e-08 0)
(2.21414 -1.04359e-07 0)
(2.21414 -1.54313e-07 0)
(2.21414 -2.0082e-07 0)
(2.21414 -2.25119e-07 0)
(2.21414 -2.46653e-07 0)
(2.21414 -2.75316e-07 0)
(2.21414 -2.90654e-07 0)
(2.21414 -2.72528e-07 0)
(2.21414 -2.25894e-07 0)
(2.21414 -1.64058e-07 0)
(2.21414 -9.93871e-08 0)
(2.21414 -5.41511e-08 0)
(2.21414 -2.82408e-08 0)
(2.21414 1.59201e-08 0)
(2.21414 8.51135e-08 0)
(2.21414 1.25209e-07 0)
(2.21414 9.91072e-08 0)
(2.21414 6.62911e-08 0)
(2.21414 8.16766e-08 0)
(2.21414 7.72083e-08 0)
(2.21414 5.72845e-08 0)
(2.21414 -2.79731e-08 0)
(2.21414 -1.44567e-07 0)
(2.21414 -3.27622e-07 0)
(2.21414 -4.01664e-07 0)
(2.58357 -1.31504e-06 0)
(2.58357 -1.14525e-06 0)
(2.58357 -8.8775e-07 0)
(2.58357 -7.44506e-07 0)
(2.58357 -3.8736e-07 0)
(2.58357 -1.09361e-07 0)
(2.58357 3.1122e-08 0)
(2.58357 2.90012e-07 0)
(2.58357 4.74212e-07 0)
(2.58357 5.14777e-07 0)
(2.58357 6.01636e-07 0)
(2.58357 6.34075e-07 0)
(2.58357 7.12549e-07 0)
(2.58357 7.13197e-07 0)
(2.58357 7.08005e-07 0)
(2.58357 6.9812e-07 0)
(2.58356 6.48765e-07 0)
(2.58356 4.93981e-07 0)
(2.58356 2.52629e-07 0)
(2.58356 5.44258e-08 0)
(2.58356 -5.06317e-08 0)
(2.58356 -1.17323e-07 0)
(2.58356 -2.1096e-07 0)
(2.58356 -3.39726e-07 0)
(2.58356 -4.42159e-07 0)
(2.58356 -4.63011e-07 0)
(2.58356 -4.04895e-07 0)
(2.58356 -3.14138e-07 0)
(2.58356 -2.64255e-07 0)
(2.58356 -2.98364e-07 0)
(2.58356 -3.81219e-07 0)
(2.58356 -4.29418e-07 0)
(2.58356 -3.86176e-07 0)
(2.58356 -2.78648e-07 0)
(2.58356 -1.77783e-07 0)
(2.58356 -1.05018e-07 0)
(2.58356 -3.03035e-08 0)
(2.58356 4.8879e-08 0)
(2.58356 9.3509e-08 0)
(2.58356 8.1274e-08 0)
(2.58356 2.62093e-08 0)
(2.58356 -3.12296e-08 0)
(2.58356 -7.52266e-08 0)
(2.58356 -1.2912e-07 0)
(2.58356 -2.0332e-07 0)
(2.58356 -2.84817e-07 0)
(2.58356 -3.5495e-07 0)
(2.58356 -4.08126e-07 0)
(2.58356 -4.44203e-07 0)
(2.58356 -4.68659e-07 0)
(2.58356 -4.98074e-07 0)
(2.58356 -5.40072e-07 0)
(2.58356 -5.69133e-07 0)
(2.58356 -5.43254e-07 0)
(2.58356 -4.52106e-07 0)
(2.58356 -3.35747e-07 0)
(2.58356 -2.4799e-07 0)
(2.58356 -2.06137e-07 0)
(2.58356 -1.84982e-07 0)
(2.58356 -1.55094e-07 0)
(2.58356 -1.07944e-07 0)
(2.58356 -4.64925e-08 0)
(2.58356 3.16033e-08 0)
(2.58356 1.2676e-07 0)
(2.58356 2.34304e-07 0)
(2.58356 3.43567e-07 0)
(2.58356 4.48643e-07 0)
(2.58356 5.46824e-07 0)
(2.58356 6.31966e-07 0)
(2.58356 6.9947e-07 0)
(2.58356 7.54923e-07 0)
(2.58356 8.08242e-07 0)
(2.58356 8.53105e-07 0)
(2.58356 8.67419e-07 0)
(2.58356 8.37817e-07 0)
(2.58356 7.72026e-07 0)
(2.58356 6.86716e-07 0)
(2.58356 5.89826e-07 0)
(2.58356 4.75108e-07 0)
(2.58356 3.3144e-07 0)
(2.58356 1.61345e-07 0)
(2.58356 -7.40653e-09 0)
(2.58356 -1.44186e-07 0)
(2.58356 -2.34062e-07 0)
(2.58356 -2.93889e-07 0)
(2.58356 -3.48852e-07 0)
(2.58356 -4.05034e-07 0)
(2.58356 -4.5235e-07 0)
(2.58356 -4.83848e-07 0)
(2.58356 -5.08783e-07 0)
(2.58356 -5.43798e-07 0)
(2.58356 -5.98823e-07 0)
(2.58356 -6.62879e-07 0)
(2.58356 -7.05027e-07 0)
(2.58356 -6.99037e-07 0)
(2.58356 -6.54371e-07 0)
(2.58356 -6.04739e-07 0)
(2.58356 -5.60924e-07 0)
(2.58356 -5.01889e-07 0)
(2.58356 -4.11739e-07 0)
(2.58356 -3.01052e-07 0)
(2.58356 -1.89452e-07 0)
(2.58356 -8.96435e-08 0)
(2.58356 1.02078e-09 0)
(2.58356 9.70371e-08 0)
(2.58356 2.16853e-07 0)
(2.58356 3.5755e-07 0)
(2.58356 4.8469e-07 0)
(2.58356 5.58081e-07 0)
(2.58356 5.70999e-07 0)
(2.58356 5.53744e-07 0)
(2.58356 5.40721e-07 0)
(2.58356 5.44237e-07 0)
(2.58356 5.55903e-07 0)
(2.58356 5.59918e-07 0)
(2.58356 5.37739e-07 0)
(2.58356 4.75553e-07 0)
(2.58356 3.74004e-07 0)
(2.58356 2.42924e-07 0)
(2.58356 1.01703e-07 0)
(2.58356 -1.86806e-08 0)
(2.58356 -9.45977e-08 0)
(2.58356 -1.22174e-07 0)
(2.58356 -1.18021e-07 0)
(2.58356 -1.13418e-07 0)
(2.58356 -1.46381e-07 0)
(2.58356 -2.23451e-07 0)
(2.58356 -2.9327e-07 0)
(2.58356 -3.11123e-07 0)
(2.58356 -2.97446e-07 0)
(2.58356 -2.79524e-07 0)
(2.58356 -2.36368e-07 0)
(2.58356 -1.5791e-07 0)
(2.58356 -8.14542e-08 0)
(2.58356 -3.32813e-08 0)
(2.58356 9.218e-09 0)
(2.58356 6.02973e-08 0)
(2.58356 1.05464e-07 0)
(2.58356 1.51176e-07 0)
(2.58356 2.23454e-07 0)
(2.58356 3.04187e-07 0)
(2.58356 3.33863e-07 0)
(2.58356 3.16306e-07 0)
(2.58356 3.12109e-07 0)
(2.58356 2.70104e-07 0)
(2.58356 1.30881e-07 0)
(2.58356 4.50716e-09 0)
(2.58356 -1.5656e-07 0)
(2.58356 -3.47675e-07 0)
(2.58356 -4.64552e-07 0)
(2.84493 -1.17331e-06 0)
(2.84493 -1.24605e-06 0)
(2.84493 -1.03323e-06 0)
(2.84493 -8.69528e-07 0)
(2.84493 -4.69233e-07 0)
(2.84493 -8.62966e-08 0)
(2.84493 1.73729e-07 0)
(2.84493 5.86841e-07 0)
(2.84493 9.71307e-07 0)
(2.84493 1.10377e-06 0)
(2.84493 1.33421e-06 0)
(2.84493 1.57535e-06 0)
(2.84493 1.66618e-06 0)
(2.84493 1.62789e-06 0)
(2.84492 1.64314e-06 0)
(2.84492 1.5781e-06 0)
(2.84492 1.33142e-06 0)
(2.84492 1.00665e-06 0)
(2.84492 7.25416e-07 0)
(2.84492 5.04678e-07 0)
(2.84492 3.40306e-07 0)
(2.84492 2.31219e-07 0)
(2.84492 1.19029e-07 0)
(2.84492 -2.5377e-08 0)
(2.84492 -1.25745e-07 0)
(2.84492 -1.34552e-07 0)
(2.84492 -1.08292e-07 0)
(2.84492 -9.03419e-08 0)
(2.84492 -6.72856e-08 0)
(2.84492 -4.22969e-08 0)
(2.84492 -4.31809e-08 0)
(2.84492 -6.30076e-08 0)
(2.84492 -4.8023e-08 0)
(2.84492 2.78272e-08 0)
(2.84492 1.10354e-07 0)
(2.84492 1.36575e-07 0)
(2.84492 1.08416e-07 0)
(2.84492 6.1209e-08 0)
(2.84492 1.50962e-08 0)
(2.84492 -3.0358e-08 0)
(2.84492 -8.05499e-08 0)
(2.84492 -1.39314e-07 0)
(2.84492 -2.13975e-07 0)
(2.84492 -3.07653e-07 0)
(2.84492 -4.05893e-07 0)
(2.84492 -4.76766e-07 0)
(2.84492 -5.15018e-07 0)
(2.84492 -5.53801e-07 0)
(2.84492 -6.14619e-07 0)
(2.84492 -6.73019e-07 0)
(2.84492 -6.91297e-07 0)
(2.84492 -6.67794e-07 0)
(2.84492 -6.3307e-07 0)
(2.84492 -6.04548e-07 0)
(2.84492 -5.68085e-07 0)
(2.84492 -5.0026e-07 0)
(2.84492 -4.01369e-07 0)
(2.84492 -3.00271e-07 0)
(2.84492 -2.19897e-07 0)
(2.84492 -1.56906e-07 0)
(2.84492 -9.27434e-08 0)
(2.84492 -1.03795e-08 0)
(2.84492 9.69095e-08 0)
(2.84492 2.19716e-07 0)
(2.84492 3.42826e-07 0)
(2.84492 4.59872e-07 0)
(2.84492 5.78144e-07 0)
(2.84492 7.0737e-07 0)
(2.84492 8.35744e-07 0)
(2.84492 9.31299e-07 0)
(2.84492 9.7566e-07 0)
(2.84492 9.85797e-07 0)
(2.84492 9.92129e-07 0)
(2.84492 9.9761e-07 0)
(2.84492 9.73635e-07 0)
(2.84492 8.95435e-07 0)
(2.84492 7.6712e-07 0)
(2.84492 6.14247e-07 0)
(2.84492 4.61974e-07 0)
(2.84492 3.16479e-07 0)
(2.84492 1.68662e-07 0)
(2.84492 1.1584e-08 0)
(2.84492 -1.38912e-07 0)
(2.84492 -2.57994e-07 0)
(2.84492 -3.39975e-07 0)
(2.84492 -4.05349e-07 0)
(2.84492 -4.78452e-07 0)
(2.84492 -5.64956e-07 0)
(2.84492 -6.51963e-07 0)
(2.84492 -7.23277e-07 0)
(2.84492 -7.7102e-07 0)
(2.84492 -8.0358e-07 0)
(2.84492 -8.3759e-07 0)
(2.84492 -8.75521e-07 0)
(2.84492 -8.92809e-07 0)
(2.84492 -8.62606e-07 0)
(2.84492 -7.90056e-07 0)
(2.84492 -7.02068e-07 0)
(2.84492 -6.09524e-07 0)
(2.84492 -5.03276e-07 0)
(2.84492 -3.78853e-07 0)
(2.84492 -2.41024e-07 0)
(2.84492 -9.70228e-08 0)
(2.84492 4.29472e-08 0)
(2.84492 1.64531e-07 0)
(2.84492 2.68985e-07 0)
(2.84492 3.78148e-07 0)
(2.84492 5.01705e-07 0)
(2.84492 6.15098e-07 0)
(2.84492 6.90034e-07 0)
(2.84492 7.34258e-07 0)
(2.84492 7.7549e-07 0)
(2.84492 8.2178e-07 0)
(2.84492 8.50387e-07 0)
(2.84492 8.30075e-07 0)
(2.84492 7.39375e-07 0)
(2.84492 5.78931e-07 0)
(2.84492 3.89067e-07 0)
(2.84492 2.28411e-07 0)
(2.84492 1.21312e-07 0)
(2.84492 4.2481e-08 0)
(2.84492 -3.71287e-08 0)
(2.84492 -1.17171e-07 0)
(2.84492 -1.86077e-07 0)
(2.84492 -2.53142e-07 0)
(2.84492 -3.30409e-07 0)
(2.84492 -3.99686e-07 0)
(2.84492 -4.26835e-07 0)
(2.84492 -4.01546e-07 0)
(2.84492 -3.45357e-07 0)
(2.84492 -2.77294e-07 0)
(2.84492 -1.94508e-07 0)
(2.84492 -1.04177e-07 0)
(2.84492 -3.01539e-08 0)
(2.84492 2.59474e-08 0)
(2.84492 1.00192e-07 0)
(2.84492 2.09748e-07 0)
(2.84492 3.18698e-07 0)
(2.84492 3.95748e-07 0)
(2.84492 4.52394e-07 0)
(2.84492 5.13414e-07 0)
(2.84492 5.65905e-07 0)
(2.84492 5.36925e-07 0)
(2.84492 4.64131e-07 0)
(2.84492 4.19144e-07 0)
(2.84492 2.38774e-07 0)
(2.84492 7.25419e-08 0)
(2.84492 -1.47168e-07 0)
(2.84492 -2.85774e-07 0)
(2.84492 -4.19035e-07 0)
(3.00072 -1.44601e-06 0)
(3.00072 -1.30107e-06 0)
(3.00072 -1.15698e-06 0)
(3.00072 -9.31715e-07 0)
(3.00072 -5.13438e-07 0)
(3.00072 -1.16609e-07 0)
(3.00072 3.2384e-07 0)
(3.00072 8.82326e-07 0)
(3.00072 1.47613e-06 0)
(3.00072 1.82854e-06 0)
(3.00072 2.15763e-06 0)
(3.00071 2.46017e-06 0)
(3.00071 2.5934e-06 0)
(3.00071 2.62936e-06 0)
(3.00071 2.62625e-06 0)
(3.00071 2.45971e-06 0)
(3.00071 2.14876e-06 0)
(3.00071 1.89251e-06 0)
(3.00071 1.71872e-06 0)
(3.00071 1.50088e-06 0)
(3.00071 1.23018e-06 0)
(3.00071 9.90688e-07 0)
(3.00071 7.77535e-07 0)
(3.00071 5.64046e-07 0)
(3.0007 4.11115e-07 0)
(3.0007 3.36338e-07 0)
(3.0007 2.58986e-07 0)
(3.0007 1.58135e-07 0)
(3.0007 1.11468e-07 0)
(3.0007 1.51608e-07 0)
(3.0007 2.20858e-07 0)
(3.0007 2.5222e-07 0)
(3.0007 2.41642e-07 0)
(3.0007 2.39784e-07 0)
(3.0007 2.67545e-07 0)
(3.0007 2.85737e-07 0)
(3.0007 2.52111e-07 0)
(3.0007 1.69907e-07 0)
(3.0007 7.6379e-08 0)
(3.0007 4.67425e-09 0)
(3.0007 -4.29001e-08 0)
(3.0007 -9.89545e-08 0)
(3.0007 -1.82479e-07 0)
(3.0007 -2.88944e-07 0)
(3.0007 -3.95107e-07 0)
(3.0007 -4.70906e-07 0)
(3.0007 -5.1526e-07 0)
(3.0007 -5.54834e-07 0)
(3.0007 -6.08106e-07 0)
(3.0007 -6.56034e-07 0)
(3.0007 -6.60546e-07 0)
(3.0007 -6.15502e-07 0)
(3.0007 -5.61371e-07 0)
(3.0007 -5.41728e-07 0)
(3.0007 -5.55297e-07 0)
(3.0007 -5.53297e-07 0)
(3.0007 -4.88344e-07 0)
(3.0007 -3.62955e-07 0)
(3.0007 -2.22464e-07 0)
(3.0007 -1.0334e-07 0)
(3.0007 -4.2122e-09 0)
(3.0007 9.61226e-08 0)
(3.0007 2.14396e-07 0)
(3.0007 3.51041e-07 0)
(3.0007 4.89318e-07 0)
(3.0007 6.11197e-07 0)
(3.0007 7.08941e-07 0)
(3.0007 7.93416e-07 0)
(3.0007 8.78957e-07 0)
(3.0007 9.60832e-07 0)
(3.0007 1.01471e-06 0)
(3.0007 1.02585e-06 0)
(3.0007 1.00818e-06 0)
(3.0007 9.8306e-07 0)
(3.0007 9.48821e-07 0)
(3.0007 8.84503e-07 0)
(3.0007 7.78111e-07 0)
(3.0007 6.40288e-07 0)
(3.0007 4.95721e-07 0)
(3.0007 3.66423e-07 0)
(3.0007 2.52184e-07 0)
(3.0007 1.27688e-07 0)
(3.0007 -2.85503e-08 0)
(3.0007 -2.10781e-07 0)
(3.0007 -3.87604e-07 0)
(3.0007 -5.31669e-07 0)
(3.0007 -6.38639e-07 0)
(3.0007 -7.22078e-07 0)
(3.0007 -8.01432e-07 0)
(3.0007 -8.85998e-07 0)
(3.0007 -9.64719e-07 0)
(3.0007 -1.01792e-06 0)
(3.0007 -1.046e-06 0)
(3.0007 -1.07034e-06 0)
(3.0007 -1.09926e-06 0)
(3.0007 -1.10433e-06 0)
(3.0007 -1.05136e-06 0)
(3.0007 -9.42625e-07 0)
(3.0007 -8.04982e-07 0)
(3.0007 -6.56427e-07 0)
(3.0007 -5.04391e-07 0)
(3.0007 -3.49864e-07 0)
(3.0007 -1.87271e-07 0)
(3.0007 -9.29993e-09 0)
(3.0007 1.68376e-07 0)
(3.0007 3.18508e-07 0)
(3.0007 4.42471e-07 0)
(3.0007 5.71984e-07 0)
(3.0007 7.19928e-07 0)
(3.0007 8.58129e-07 0)
(3.0007 9.56602e-07 0)
(3.0007 1.00924e-06 0)
(3.0007 1.01658e-06 0)
(3.0007 9.72271e-07 0)
(3.0007 8.77701e-07 0)
(3.0007 7.49225e-07 0)
(3.0007 6.02548e-07 0)
(3.0007 4.55317e-07 0)
(3.0007 3.31025e-07 0)
(3.0007 2.3275e-07 0)
(3.0007 1.30528e-07 0)
(3.0007 -9.2818e-10 0)
(3.0007 -1.52278e-07 0)
(3.0007 -3.04066e-07 0)
(3.0007 -4.46595e-07 0)
(3.0007 -5.52964e-07 0)
(3.0007 -5.81636e-07 0)
(3.0007 -5.38994e-07 0)
(3.0007 -4.7769e-07 0)
(3.0007 -4.19283e-07 0)
(3.0007 -3.4339e-07 0)
(3.0007 -2.51109e-07 0)
(3.0007 -1.62218e-07 0)
(3.0007 -7.15395e-08 0)
(3.0007 3.88889e-08 0)
(3.0007 1.70759e-07 0)
(3.0007 3.10223e-07 0)
(3.0007 4.41057e-07 0)
(3.0007 5.59046e-07 0)
(3.0007 6.30712e-07 0)
(3.0007 6.3419e-07 0)
(3.0007 6.21266e-07 0)
(3.0007 6.10314e-07 0)
(3.0007 5.26688e-07 0)
(3.0007 4.458e-07 0)
(3.0007 3.25469e-07 0)
(3.0007 2.01319e-07 0)
(3.0007 1.31558e-08 0)
(3.0007 -1.20404e-07 0)
(3.0007 -2.44779e-07 0)
(3.05248 -1.91417e-06 0)
(3.05248 -1.6334e-06 0)
(3.05248 -1.35282e-06 0)
(3.05248 -1.05135e-06 0)
(3.05248 -5.80581e-07 0)
(3.05248 -4.81694e-09 0)
(3.05248 6.48734e-07 0)
(3.05248 1.27771e-06 0)
(3.05248 1.86375e-06 0)
(3.05248 2.41672e-06 0)
(3.05248 2.89487e-06 0)
(3.05247 3.20915e-06 0)
(3.05247 3.39075e-06 0)
(3.05247 3.49224e-06 0)
(3.05247 3.44228e-06 0)
(3.05247 3.23383e-06 0)
(3.05247 3.00353e-06 0)
(3.05247 2.82196e-06 0)
(3.05247 2.62007e-06 0)
(3.05247 2.35001e-06 0)
(3.05247 2.03525e-06 0)
(3.05247 1.71347e-06 0)
(3.05247 1.4062e-06 0)
(3.05247 1.13141e-06 0)
(3.05247 9.25368e-07 0)
(3.05247 7.98181e-07 0)
(3.05247 7.04933e-07 0)
(3.05247 6.16974e-07 0)
(3.05247 5.50631e-07 0)
(3.05246 5.21113e-07 0)
(3.05246 5.20123e-07 0)
(3.05246 5.1168e-07 0)
(3.05246 4.53165e-07 0)
(3.05246 3.59068e-07 0)
(3.05246 2.91389e-07 0)
(3.05246 2.70081e-07 0)
(3.05246 2.56044e-07 0)
(3.05246 2.10784e-07 0)
(3.05246 1.36255e-07 0)
(3.05246 5.82478e-08 0)
(3.05246 -1.61903e-08 0)
(3.05246 -9.96218e-08 0)
(3.05246 -1.87036e-07 0)
(3.05246 -2.57874e-07 0)
(3.05246 -3.09304e-07 0)
(3.05246 -3.57193e-07 0)
(3.05246 -4.0696e-07 0)
(3.05246 -4.43277e-07 0)
(3.05246 -4.53478e-07 0)
(3.05246 -4.47211e-07 0)
(3.05246 -4.45912e-07 0)
(3.05246 -4.63395e-07 0)
(3.05246 -4.99248e-07 0)
(3.05246 -5.41692e-07 0)
(3.05246 -5.71837e-07 0)
(3.05246 -5.6839e-07 0)
(3.05246 -5.1628e-07 0)
(3.05246 -4.16509e-07 0)
(3.05246 -2.88684e-07 0)
(3.05246 -1.5585e-07 0)
(3.05246 -2.32207e-08 0)
(3.05246 1.11449e-07 0)
(3.05246 2.5145e-07 0)
(3.05246 3.95618e-07 0)
(3.05246 5.41908e-07 0)
(3.05246 6.80876e-07 0)
(3.05246 7.94033e-07 0)
(3.05246 8.67738e-07 0)
(3.05246 9.11202e-07 0)
(3.05246 9.49152e-07 0)
(3.05246 9.90793e-07 0)
(3.05246 1.01805e-06 0)
(3.05246 1.00995e-06 0)
(3.05246 9.65487e-07 0)
(3.05246 8.99612e-07 0)
(3.05246 8.24972e-07 0)
(3.05246 7.44078e-07 0)
(3.05246 6.50472e-07 0)
(3.05246 5.34971e-07 0)
(3.05246 3.96436e-07 0)
(3.05246 2.44197e-07 0)
(3.05246 8.76947e-08 0)
(3.05246 -7.68118e-08 0)
(3.05246 -2.57026e-07 0)
(3.05246 -4.40923e-07 0)
(3.05246 -6.01287e-07 0)
(3.05246 -7.19679e-07 0)
(3.05246 -7.99749e-07 0)
(3.05246 -8.6365e-07 0)
(3.05246 -9.37203e-07 0)
(3.05246 -1.02697e-06 0)
(3.05246 -1.10911e-06 0)
(3.05246 -1.15313e-06 0)
(3.05246 -1.15425e-06 0)
(3.05246 -1.13312e-06 0)
(3.05246 -1.10201e-06 0)
(3.05246 -1.05018e-06 0)
(3.05246 -9.67454e-07 0)
(3.05246 -8.59794e-07 0)
(3.05246 -7.36207e-07 0)
(3.05246 -5.97137e-07 0)
(3.05246 -4.45231e-07 0)
(3.05246 -2.79356e-07 0)
(3.05246 -9.41983e-08 0)
(3.05246 1.10798e-07 0)
(3.05246 3.12512e-07 0)
(3.05246 4.82199e-07 0)
(3.05246 6.17528e-07 0)
(3.05246 7.36205e-07 0)
(3.05246 8.45206e-07 0)
(3.05247 9.36319e-07 0)
(3.05247 9.96575e-07 0)
(3.05247 1.01075e-06 0)
(3.05247 9.66912e-07 0)
(3.05247 8.75994e-07 0)
(3.05247 7.71887e-07 0)
(3.05247 6.78184e-07 0)
(3.05247 5.84187e-07 0)
(3.05247 4.63155e-07 0)
(3.05247 2.99555e-07 0)
(3.05247 1.05207e-07 0)
(3.05247 -9.06996e-08 0)
(3.05247 -2.68633e-07 0)
(3.05247 -4.32643e-07 0)
(3.05247 -5.77326e-07 0)
(3.05247 -6.6323e-07 0)
(3.05247 -6.59039e-07 0)
(3.05247 -5.99098e-07 0)
(3.05247 -5.43872e-07 0)
(3.05247 -4.96923e-07 0)
(3.05247 -4.16311e-07 0)
(3.05247 -3.03678e-07 0)
(3.05247 -1.85375e-07 0)
(3.05247 -4.83295e-08 0)
(3.05247 1.08925e-07 0)
(3.05247 2.49077e-07 0)
(3.05247 3.51961e-07 0)
(3.05247 4.31396e-07 0)
(3.05247 5.00997e-07 0)
(3.05247 5.5442e-07 0)
(3.05247 5.63133e-07 0)
(3.05247 5.26883e-07 0)
(3.05247 5.65319e-07 0)